420
baseline step 200
Pu 1.53886500 5.73510600 4.30004400
O 2.47819500 0.71693100 7.75585400
O 4.83688500 -2.82043400 -3.82049500
Pu 2.79538400 3.00665000 -5.40479000
O -5.60785000 8.20134500 1.98939300
O 10.62262108 -2.58616006 -3.14144431
Pu -7.90403800 6.00035400 -0.28430400
O 3.01447836 -11.92791505 -1.88643669
O -7.09371600 -3.45905200 -4.81284000
Pu -4.27057300 3.60264200 -7.45970400
O 1.20152098 -6.92742072 6.36672809
O 5.07981520 7.46226158 8.64206298
Pu 5.80151392 -5.86979627 3.90979845
O 2.28542900 2.55746600 0.28308000
O 5.96039364 6.29301406 -4.89926457
Pu -1.22988700 5.53955800 6.45648400
O -5.99846400 0.67681700 -5.05936400
O -4.34697200 1.01176200 -1.52062300
Pu -5.37372900 5.30791100 -3.44588800
O 8.19026700 2.60766700 -2.72590200
O 4.20023100 -0.75159500 2.65110100
Pu 1.72423974 4.01701448 8.09192719
O -4.61853100 1.30337800 -8.11337200
O -6.16686000 7.49445100 -0.93600100
Pu 0.24215000 -5.58756500 -10.90219300
O 2.17467900 7.71177100 -2.67368500
O -5.72844700 2.74791000 8.04369400
Pu 5.76429700 -3.27484500 -1.12539000
O -1.29562400 2.95778900 1.84911900
O -0.60946706 3.39761311 7.69031419
Pu -0.58632500 7.07698200 1.43629000
O 4.72434900 -5.57962800 1.92117600
O 0.85543603 4.17491049 6.15084964
Pu -3.63866000 -0.52157900 -8.42978200
O 1.29111900 -6.59903700 -6.18452500
O 0.79080800 9.00546100 -5.11735200
Pu 0.29764600 3.11177300 0.67131700
O -2.08081768 4.29162850 -9.35992209
O 4.66823800 -3.22794700 3.94265600
Pu 0.04498000 4.59186300 -9.90637300
O -6.71152048 5.12791482 7.64018414
O 0.68889800 -1.84355300 -9.64986100
Pu -3.51518194 -7.89578045 -6.93007827
O -5.07949936 -6.41573536 -7.21007693
O -5.84866700 -5.69487800 4.27947400
Pu -0.85907900 -6.29023000 5.95933500
O 6.19140100 2.56585500 6.36241500
O 1.27471746 -11.95777574 0.97388011
Pu -2.72328766 8.20430327 7.57188575
O -2.16189777 2.23806118 4.93284299
O -9.82487135 6.29657085 0.76290530
Pu 5.78762800 0.85727000 -8.00512800
O 3.72102675 -7.02306242 8.54425960
O 0.44177900 7.47437200 3.53696600
Pu 4.54706406 0.77790116 7.86505754
O -4.34249500 -5.99118700 -3.55614900
O -9.69644800 -5.34229800 0.28678900
Pu 7.33917300 -2.89513300 1.89059500
O 1.41436700 3.67548300 3.14296400
O -1.00761700 7.76550900 -2.32306000
Pu 0.20782100 9.45264200 -2.49726400
O 5.06174800 8.91816000 1.46941200
O -6.29488900 -6.51767700 0.95464200
Pu -1.91923513 7.44852728 -9.28622967
O 4.15204088 6.75017701 0.07095035
O 4.28251600 1.86360200 -10.02003800
Pu 2.43829844 -8.28530656 4.60129351
O -4.74977535 2.49353532 2.49554964
O 1.69331700 9.96081900 -0.77310200
Pu 2.90226900 -5.26113500 6.83299200
O 2.80043727 -1.16833155 -11.27629302
O 0.53109400 -7.33024600 -9.21110200
Pu -9.12733708 5.22308098 5.16867855
O 9.62309600 0.67361400 1.92493900
O 5.29349900 -3.37097300 -9.01564900
Pu -0.79421960 -6.55776222 -4.08538294
O -8.57318400 7.18069000 5.12379500
O -7.82644025 5.60187553 -4.31089048
Pu 5.13074287 6.09817919 1.96055444
O 4.05089500 4.33836000 1.39865000
O -8.48968539 2.80598718 -5.33397679
Pu 12.31212155 2.84414865 -1.62628080
O 6.74057800 5.03161600 6.91774100
O -2.19910000 6.21842900 8.11587900
Pu 3.82594195 0.91656229 -0.74512969
O 0.28629900 -1.59193300 -5.12497600
O -5.80202887 -3.28485026 6.24952292
Pu -1.00927100 0.89982800 -5.82001000
O 4.08328454 5.18476671 3.80793331
O 3.54030438 7.93467607 -5.28604336
Pu -11.12063100 2.26962100 6.37284000
O -10.44883700 4.02741700 6.64231400
O 13.34432500 4.03630900 -2.69235200
Pu -10.16753706 4.27907439 1.39322778
O 5.70980000 5.92921100 -1.79094400
O -3.37051400 4.37306300 5.54104500
Pu -9.30400500 0.36463800 0.72353800
O -10.38676400 4.55098200 3.50445700
O 1.07715500 -8.94809500 -6.03352800
Pu -9.77593417 -6.02435750 -1.49033903
O -2.41434044 -0.13955074 -0.11261637
O 2.08604016 4.97431237 -9.62093540
Pu -1.79966400 -3.11401300 6.80433200
O 4.59169700 1.83317000 1.70933800
O -3.69933174 6.69531106 6.68232264
Pu -4.75645800 7.83684600 0.30051600
O -3.60243678 0.59916505 -5.66753402
O 6.71472100 4.67905700 3.33267000
Pu -0.92505600 9.48420500 4.66662800
O 0.69894100 4.45239200 9.80417200
O 8.23844065 2.71380040 2.46461201
Pu -5.85953028 -1.29626788 5.70999483
O -0.04447500 0.54959900 -10.93378000
O 4.72046317 3.02762134 -1.12030961
Pu 7.20324500 -1.09186100 -4.00110500
O 7.18569800 -5.72539300 -1.40454900
O -2.57085660 6.14155276 -6.48499789
Pu 2.03913507 -10.08281502 1.75252911
O 6.40801124 5.35585124 0.74362183
O 11.57199301 0.84115179 -2.18933301
Pu 9.97159207 3.57168531 1.41676035
O 7.72645600 -4.87763600 2.81479600
O -1.39248900 1.14023900 7.92487500
Pu -3.34750400 -1.57964900 -1.81020800
O -0.39576700 7.96710300 -7.59348400
O -0.33044280 -1.74267180 -12.67473978
Pu 1.83509900 7.13678900 -6.40224100
O -10.37390700 -5.05773100 -3.05501100
O -0.30789983 -12.58579490 -2.14777824
Pu 1.82555200 -2.56849500 -0.67833500
O -7.38558000 0.34775600 -0.89551100
O -4.66325950 -4.37324732 9.84195749
Pu 3.43260768 -9.97666212 -2.42088873
O 6.39381974 -4.51158092 -6.89887733
O -0.14425900 -4.79461200 -2.31845200
Pu 2.98419582 8.50363544 0.09084920
O 8.79938900 0.10941300 -3.78571200
O 4.02806900 -6.67219500 -7.21254300
Pu 2.62309300 -7.63847900 -5.23304700
O -4.28900400 4.13236200 -5.40284300
O -9.77370100 -0.32245100 -1.45674200
Pu -3.23789700 7.83714400 -2.58772300
O -1.03559400 -5.04624200 2.11988200
O 5.04320679 5.29448376 -8.05760621
Pu 5.34605982 -8.61606347 0.42209314
O 1.10765200 1.89126000 -4.74326400
O -3.35865029 3.46072325 0.50177769
Pu -4.20782100 1.05777600 -3.88237400
O 1.48609100 -4.64355700 -12.01145800
O -6.00680900 -7.85768100 -2.03563400
Pu 7.62760500 -3.05744000 5.98803500
O -4.53919500 -1.83531600 -7.15147300
O 6.96169100 -1.55725400 6.97866800
Pu 6.60304985 6.81718195 7.56417861
O -0.83493400 4.95871100 1.13822300
O -9.25357206 2.12512355 8.62106051
Pu 8.35086501 4.10916592 8.23180200
O -2.60706130 -9.28245692 -3.19634329
O -2.53892300 -2.31971200 9.62493400
Pu 6.16731600 4.04708800 -2.70506500
O -10.04503284 2.43548239 0.89196361
O -1.09560100 -4.19992800 -6.24295100
Pu -0.46822870 -3.20795113 3.35324747
O 7.39300579 -0.84811524 4.59985971
O -4.18604600 5.94416900 -1.56651900
Pu 2.83954172 -2.08768309 2.57451797
O 3.85362800 8.88698200 5.74098000
O 5.18065700 0.26271100 -2.54444100
Pu 3.05640600 2.14955400 3.17947400
O 2.42185700 -3.08945800 -7.09207500
O 8.55949031 3.16190258 9.88976240
Pu 1.20921941 -12.64331324 -0.99450021
O -7.59529500 1.68277300 2.41328500
O -0.03927229 -8.77441147 1.40999571
Pu -6.94262900 -8.49776400 -0.00885000
O -7.57539380 -0.69032571 -6.59327806
O 2.79679700 -3.87610000 1.75462700
Pu 7.01530239 -2.74692239 -7.99195315
O -4.32664400 -9.92081800 -4.97600700
O -0.86532600 -2.31311700 -1.15003600
Pu 6.17884100 -7.26087800 -2.97865200
O 7.72503370 -7.75900149 0.25189623
O -8.41310255 -5.13096170 3.62958027
Pu 3.39384900 4.64812700 -0.59715100
O -10.52932842 -2.00361065 -3.63060867
O -6.26480421 -3.70355575 1.47772222
Pu 0.09220920 -7.89950205 -7.35291346
O 6.12517000 -1.75337000 0.62788200
O -5.66628100 1.31387500 5.15268700
Pu -5.41103900 -4.14183500 8.07997300
O -2.45312400 -6.38518600 0.14855300
O 1.57876900 2.60026600 -9.32952700
Pu 6.22853200 3.22405100 1.69602500
O -7.55672172 -1.97987233 7.66477484
O 4.83468572 7.45634841 3.27385114
Pu -3.56224735 1.38287095 0.62851917
O 1.07140710 5.23561832 -0.78445677
O 0.38877400 -2.84296900 0.83419900
Pu 9.24370658 0.49306312 4.00678375
O 5.22436800 2.62989700 4.09796700
O -0.11800318 6.78806750 -5.15771901
Pu -4.54505100 -5.68957800 -0.33778600
O 1.39470100 -3.64499900 3.37879900
O -6.85296900 4.45892700 -1.72935300
Pu -1.91239600 -0.18682600 9.20828800
O -5.82660200 -1.66053600 3.72189000
O 8.94800600 -0.09632400 5.80855100
Pu 2.33173800 -0.92628900 -7.14417100
O 6.92969593 0.42718179 -5.84416099
O 2.54740161 -10.02377822 3.78800938
Pu 8.29305184 2.24888140 -5.08352305
O -3.91958100 -6.37159500 2.04235300
O -0.41771128 6.54964478 -10.33890256
Pu 3.32580700 7.59555200 7.29557500
O 6.21770000 0.91775800 8.98762600
O -1.75420300 -0.86035700 2.09766900
Pu 9.29141968 -4.29513360 -3.08201575
O -2.61954800 5.49008800 -2.92650600
O -2.52946376 0.35996163 -2.07582360
Pu -5.35250300 5.04974900 6.24050500
O -6.31942718 -5.69221512 7.04698403
O 1.36002771 7.50349540 1.19176627
Pu 5.84183963 -4.54565425 -4.74141774
O -0.50559100 -1.78864100 6.03807400
O -0.11793040 -0.85915974 9.04622177
Pu 4.59359900 7.53863400 -3.70237100
O -2.86732474 2.97279895 7.87521706
O -7.92076100 -6.55456400 -0.86017600
Pu 2.30032400 0.76782300 -10.35717800
O 2.26262500 -1.37222200 0.86394200
O -7.45296000 1.20873500 -2.90735400
Pu -0.53902400 -2.68577400 -3.70563800
O 6.70411582 8.34459193 6.24629576
O 9.91032300 4.54118600 3.29837700
Pu 8.06429600 4.73016600 4.69743400
O 12.42324997 -1.53747022 -0.45127703
O -2.49383059 1.84643180 10.55485478
Pu 2.57817000 -5.98309000 1.77187400
O -0.04059668 -6.44364490 -0.82459957
O -11.05082587 0.25289526 6.28863866
Pu -7.68651100 3.56400000 8.24126600
O 8.43126322 5.95281994 7.74246334
O 2.09299300 1.20672200 -2.31973000
Pu 11.37566700 -1.08278400 -2.08580600
O 1.45621224 -2.41157784 -2.94789387
O -4.43069100 -0.06205800 2.04338700
Pu -7.48293193 -1.43714964 -1.92852423
O -4.94326400 -1.53709500 -3.83304600
O -2.38302300 3.00707900 -6.69141100
Pu -6.00868200 -1.41283100 1.45033000
O 4.45315300 -5.90718600 -1.63960100
O 8.56088846 3.38001395 6.20463056
Pu -10.07679573 0.14444434 -3.39575707
O 9.96894400 -5.27546200 -1.39499400
O 3.09228800 -0.94968800 -1.43566700
Pu -7.33237000 7.25259600 3.04183600
O -1.93472118 9.37823266 -3.55762397
O 2.20605549 -8.34094756 -2.12064591
Pu -2.83970845 -4.08523059 10.39502295
O -3.57487400 9.24486000 4.73039000
O 5.00902103 8.39287408 -1.56715665
Pu -9.12497258 -3.33570627 -4.05247384
O 11.98265238 2.66234651 0.67582620
O -9.56928402 1.93613418 5.00468063
Pu 3.86066000 4.03870000 -8.92095300
O -0.82722845 -5.99446163 7.88799013
O -4.25895600 -7.08557300 4.61011600
Pu -9.50050427 4.32671102 -4.12622134
O 3.12525100 -7.38583100 0.17411500
O 9.44275700 -2.27779900 2.72106200
Pu 1.31527159 -2.38699665 -11.94323279
O -4.08833378 7.47239448 -4.55399894
O -8.54058378 -3.72002713 6.29097648
Pu -1.68294700 3.34629600 9.65444600
O -4.64035300 -8.70182300 0.31614600
O -2.23837200 -2.43518700 -8.96405800
Pu -2.40162000 4.95992600 -0.89326300
O -1.93700140 10.91297227 3.74149205
O 4.56193500 3.89600000 -4.32146000
Pu -3.89823600 1.80798600 6.66007600
O -4.49665800 -3.82564100 -1.26413000
O -1.30245200 -0.45441500 -3.52093000
Pu -1.61648500 -7.62259300 2.58374000
O -1.61242400 -4.54166000 5.02966100
O -7.62525300 -0.55536600 5.52431700
Pu -0.19028011 2.16751882 5.91004457
O 1.00355000 -3.71937700 6.33082200
O 5.20006400 -7.81806400 2.30652200
Pu 3.09604200 -1.06747100 -3.76488400
O -7.52901012 3.74286681 5.68354279
O -5.35922800 -1.50838300 -0.59592400
Pu 7.49704000 0.74740200 6.89508200
O -4.55289800 6.04433500 1.71621400
O 4.94001634 -6.35475160 -4.41802662
Pu -7.51100059 1.62614567 4.72285692
O 1.41771147 1.23730547 4.58511117
O 6.88430700 -0.82535000 -8.48053100
Pu -9.49989600 -1.79921800 6.99219500
O -9.69908460 5.25370178 -2.46014254
O 8.63451400 -3.82478200 0.67165800
Pu 2.45820933 -5.82036270 -2.16830862
O 11.61029900 -2.96597300 2.26151800
O 7.19853638 -2.72035903 -5.45069206
Pu -1.53168203 8.32038748 -5.64061167
O 7.24903780 -2.74149458 -2.65652690
O -10.56846800 2.00058400 -3.04071900
Pu -3.99322517 7.26589741 4.19329249
O -1.30529295 8.10435168 6.25116022
O -0.27580800 -3.65537100 -10.81636600
Pu -5.80605700 -1.40570500 -5.73121500
O 3.45665280 -0.10947337 -5.65901764
O -3.48951098 -0.16360889 7.46608604
Pu -3.54847800 -10.31754100 0.21868500
O -3.89765700 7.53128100 -9.24801000
O -8.33578100 -3.31484200 -2.27728100
Pu -4.80443300 -9.01462000 -3.20895300
O 1.54847500 -4.51854500 -0.52412600
O -2.32030500 7.46606100 0.11967100
Pu -6.29981616 3.90028607 2.35378380
O -0.18267600 -8.40273100 -3.11524200
O -5.86692000 6.94305700 4.96383200
Pu 8.86760600 -6.18129600 0.63323500
O 4.37119423 2.58829894 -6.96379681
O -3.69808753 9.84617391 7.13892233
Pu -0.84729400 1.46763500 -2.39522200
O -2.86755800 -2.74417400 3.17728800
O 3.38858500 -1.25256400 6.07140600
Pu 5.47457500 8.69068119 4.63079440
O -7.98406600 5.23683200 3.29137000
O -4.28544100 8.91529800 -1.27880600
Pu -2.56835100 4.15679900 2.99260200
O 2.03965600 -7.84028500 2.34402600
O -8.18863000 -1.32719000 1.16384700
Pu -7.62817470 1.13001335 -5.94143777
O 7.05945835 3.74545682 -4.77326555
O -6.68862237 -9.26345751 2.02854192
Pu -8.00435500 -5.00463100 1.44771000
O -2.65246900 -0.03346200 -10.05285900
O 7.68368900 -5.74689400 -3.85009800
Pu -1.07921770 -10.47944506 -3.28402575
O 2.76459500 5.92997000 8.02161100
O 0.41538399 -0.41932001 -7.18974572
Pu 0.38019600 -8.39817800 -0.90287500
O 3.85983391 -3.36792786 -1.86930660
O 6.88837700 -5.08147300 5.74057900
Pu 0.92014900 5.89921300 -2.97680800
O 10.24639000 -6.30101100 2.77013600
O 0.04149400 1.32116700 -0.19586600
Pu -3.45913091 11.26777189 5.53664552
O -1.93574257 -8.91903659 -7.79099398
O -2.89866300 -3.23953700 -2.95329700
Pu 6.54937178 8.00465328 -0.43894448
O 3.72232900 0.47978500 -8.10324800
O -3.04427479 8.83781546 -6.86823648
Pu -0.44114900 -0.59034000 0.06839300
O -2.87728500 -9.44218800 2.22557100
O -0.85243500 -7.62135000 4.39103100
Pu 5.79549415 4.67776883 -6.04937878
O -1.19668300 3.34169000 -1.09282000
O -5.23909448 4.82672497 4.20726220
Pu -0.84779775 -4.68447403 -0.07712748
O 7.72082100 2.46552300 -7.12620500
O -2.31930308 6.43748671 3.67121130
Pu 4.97694600 -1.23367200 4.58754400
O -4.28182800 -3.12233400 -5.43859100
O -8.13959100 3.56893200 0.09533600
Pu -4.37729634 7.19611300 -6.54476663
O 3.46776400 2.99601800 7.40204200
O 1.13668400 7.11776100 6.33667600
Pu -7.39343900 -4.96761000 5.40379000
O 4.03875300 -8.51226800 -3.71688100
O -8.08445200 -1.12050000 -3.95711400
Pu 1.45801677 -1.37918404 7.41607008
O -5.54309600 5.64538000 -7.03414500
O 1.44117234 -6.32072708 -3.91754599
Pu -1.81060700 4.46235000 -4.96477100
O -9.11366300 -8.60445500 -0.50884000
O 2.83534800 5.11742100 -2.73150800
Pu -6.73569600 2.45404600 -1.62288200
O 8.10025400 8.38876300 -1.50335300
O -3.27271100 -4.27315900 7.92893900
Pu -5.13610500 -8.24145600 2.67950000
O -1.94618700 -10.59748900 -1.12942600
O -0.33006934 -3.47611085 8.18635312
Pu 11.05469800 -1.44021800 1.11566200
O 5.50598700 0.23549900 6.09529200
O -5.42235700 -10.15013300 -1.60259600
Pu 3.86461100 -4.85372200 -8.15456700
O -4.86942800 3.33143500 -3.29965900
O 5.04640300 -8.95124100 -1.44877600
Pu -5.11247300 -3.80671200 -3.69379300
O 1.56297900 -4.64402900 -9.25105600
O 8.97300389 -3.75357783 4.75817256
Pu 4.87316000 4.05304200 5.79443000
O 0.24777126 4.54227826 -4.30288608
O 3.49160915 -6.34303512 5.13216993
Pu -3.97736600 -5.20561700 3.92622900
O 7.03473300 2.42379300 -0.16162600
O 3.37270408 -10.25332506 0.15271684
Pu -0.01514800 -3.11462300 -8.14316800
O -1.31865833 11.17166710 5.94452291
O -7.12413800 5.59206200 1.48259700
Pu 8.41656600 1.28612200 -1.04380400
O -1.11722425 -5.05081545 11.27376598
O 10.09828600 -0.38718200 -0.45369500
Pu 0.44035200 -4.94986900 9.58850400
O -2.97018200 -5.92539700 -8.15666900
O -3.93606900 -1.51681700 5.52390600
Pu -3.22592100 -0.89129900 3.63100600
O -1.36640300 2.47646000 -4.18161600
O 2.03160800 -4.19862700 8.59257900
Pu 10.47790100 -4.36116500 3.56338300
O -0.34944700 5.17919100 4.05217900
O 5.21932200 6.56920400 6.27650500
Pu -3.69678600 -4.46364800 -6.97961300
O 3.07496712 5.07360027 -6.28605085
O 0.52336695 -10.32349019 -2.12573718
Pu -1.34360108 -1.22146343 -10.77561284
O -2.07279918 -7.22963805 -5.50243385
O 9.91342981 3.05544095 -0.70891619
