420
ML-kMC step 100
Pu 1.53886500 5.73510600 4.30004400
O 2.47819500 0.71693100 7.75585400
O 4.83688500 -2.82043400 -3.82049500
Pu 2.79538400 3.00665000 -5.40479000
O -5.60785000 8.20134500 1.98939300
O 10.45921635 -2.77282109 -3.25580256
Pu -7.90403800 6.00035400 -0.28430400
O 3.05010100 -11.95864400 -1.91397700
O -7.09371600 -3.45905200 -4.81284000
Pu -4.27057300 3.60264200 -7.45970400
O 1.20480600 -6.83943700 6.45926600
O 5.14728300 7.48046200 8.64912300
Pu 5.62173600 -5.98621200 3.89690900
O 2.28542900 2.55746600 0.28308000
O 5.75824197 6.52516250 -5.17395581
Pu -1.22988700 5.53955800 6.45648400
O -5.99846400 0.67681700 -5.05936400
O -4.34697200 1.01176200 -1.52062300
Pu -5.37372900 5.30791100 -3.44588800
O 8.19026700 2.60766700 -2.72590200
O 4.20023100 -0.75159500 2.65110100
Pu 1.67480900 3.92463200 8.19814000
O -4.61853100 1.30337800 -8.11337200
O -6.16686000 7.49445100 -0.93600100
Pu 0.23985515 -5.53404262 -10.79755440
O 2.17467900 7.71177100 -2.67368500
O -5.74122070 2.74209732 7.93998625
Pu 5.84124071 -3.26587191 -1.07559996
O -1.34938117 2.86013236 1.88379376
O -0.51471600 3.49046600 7.93334900
Pu -0.47473804 6.92201770 1.65564028
O 4.72434900 -5.57962800 1.92117600
O 0.78368400 4.17249600 6.06850100
Pu -3.63866000 -0.52157900 -8.42978200
O 1.29111900 -6.59903700 -6.18452500
O 0.79080800 9.00546100 -5.11735200
Pu 0.29764600 3.11177300 0.67131700
O -2.03261321 4.26078354 -9.28715687
O 4.66823800 -3.22794700 3.94265600
Pu 0.27044978 4.70317514 -9.97850474
O -6.75417200 5.08918500 7.67986900
O 0.68889800 -1.84355300 -9.64986100
Pu -3.61902000 -7.98271400 -6.93226700
O -4.74842034 -6.42240114 -7.12368005
O -5.84866700 -5.69487800 4.27947400
Pu -0.85907900 -6.29023000 5.95933500
O 6.19140100 2.56585500 6.36241500
O 1.28126800 -12.01946100 0.97887600
Pu -2.66411449 8.25557914 7.83541720
O -2.10230696 2.24276978 4.93078896
O -9.78389400 6.23539600 0.85960900
Pu 5.78762800 0.85727000 -8.00512800
O 3.74760100 -7.07325900 8.60534500
O 0.44177900 7.47437200 3.53696600
Pu 4.54468300 0.78074700 7.86967000
O -4.34249500 -5.99118700 -3.55614900
O -9.69971203 -5.24476961 0.39236140
Pu 7.33917300 -2.89513300 1.89059500
O 1.41436700 3.67548300 3.14296400
O -1.00761700 7.76550900 -2.32306000
Pu 0.20782100 9.45264200 -2.49726400
O 5.06174800 8.91816000 1.46941200
O -6.29488900 -6.51767700 0.95464200
Pu -1.95590197 7.57296554 -9.43674816
O 4.19017900 6.96661300 0.14645300
O 4.24769323 1.83664243 -10.00826572
Pu 2.44230500 -8.37184900 4.55171800
O -4.78772605 2.31232166 2.62131890
O 1.69331700 9.96081900 -0.77310200
Pu 2.90226900 -5.26113500 6.83299200
O 2.81181000 -1.38149400 -11.31895400
O 0.53109400 -7.33024600 -9.21110200
Pu -9.12942555 5.21961356 5.16744240
O 9.62309600 0.67361400 1.92493900
O 5.29349900 -3.37097300 -9.01564900
Pu -0.89753300 -6.58576200 -4.20102100
O -8.57318400 7.18069000 5.12379500
O -7.84201000 5.66882600 -4.54487500
Pu 5.12475982 6.13436814 1.99348782
O 4.05089500 4.33836000 1.39865000
O -8.48721192 2.76957149 -5.31731982
Pu 12.15103361 2.97463771 -1.38581867
O 6.62385060 4.87916226 6.77784578
O -2.25043144 6.15183454 7.97480635
Pu 3.75838300 0.92697500 -0.90412500
O 0.28629900 -1.59193300 -5.12497600
O -5.84274835 -3.28055038 6.41070965
Pu -1.00927100 0.89982800 -5.82001000
O 4.18770800 5.29696400 3.69041400
O 3.55994600 7.97881000 -5.31546100
Pu -11.11177789 2.26020664 6.39584039
O -10.25415605 3.95222575 6.51865468
O 13.34432500 4.03630900 -2.69235200
Pu -10.12254467 4.27912554 1.39612742
O 5.70980000 5.92921100 -1.79094400
O -3.37536609 4.43873091 5.55216049
Pu -9.30400500 0.36463800 0.72353800
O -10.16393208 4.45328161 3.42943786
O 1.07715500 -8.94809500 -6.03352800
Pu -9.79609127 -6.00669699 -1.48811842
O -2.39937593 -0.12852342 -0.12019766
O 2.24671189 4.86386310 -9.87012183
Pu -1.79966400 -3.11401300 6.80433200
O 4.59169700 1.83317000 1.70933800
O -3.70632300 6.69899000 6.68802800
Pu -4.75645800 7.83684600 0.30051600
O -3.61479567 0.58213364 -5.62229243
O 6.71472100 4.67905700 3.33267000
Pu -0.71799130 9.27082002 4.77936588
O 0.61160398 4.36157305 9.75623351
O 8.37452600 2.65785800 2.65085700
Pu -5.84394343 -1.33786758 5.77321167
O 0.00143415 0.65993360 -10.87653892
O 4.86340900 3.10655100 -1.15927800
Pu 7.20324500 -1.09186100 -4.00110500
O 7.18569800 -5.72539300 -1.40454900
O -2.73334600 6.07287400 -6.60741100
Pu 2.00349275 -10.31891764 1.66845182
O 6.36118375 5.37654228 0.74245204
O 11.69337800 0.80506300 -2.27768600
Pu 9.84427400 3.67972000 1.44380400
O 7.72645600 -4.87763600 2.81479600
O -1.39248900 1.14023900 7.92487500
Pu -3.34750400 -1.57964900 -1.81020800
O -0.39576700 7.96710300 -7.59348400
O -0.35396800 -1.75939500 -12.79463100
Pu 1.83509900 7.13678900 -6.40224100
O -10.37390700 -5.05773100 -3.05501100
O -0.37200952 -12.66701727 -2.19852842
Pu 1.82555200 -2.56849500 -0.67833500
O -7.38558000 0.34775600 -0.89551100
O -4.72757052 -4.41068565 9.85876270
Pu 3.31584500 -10.05104900 -2.20311800
O 6.50170600 -4.53969900 -7.00357300
O -0.31364104 -4.62005921 -2.53380914
Pu 2.94992100 8.81968500 0.12542600
O 8.65931123 0.13755688 -3.44328601
O 4.02806900 -6.67219500 -7.21254300
Pu 2.62309300 -7.63847900 -5.23304700
O -4.28900400 4.13236200 -5.40284300
O -9.77370100 -0.32245100 -1.45674200
Pu -3.23789700 7.83714400 -2.58772300
O -1.03559400 -5.04624200 2.11988200
O 5.03144700 5.45515900 -8.18213900
Pu 5.31045875 -8.57279531 0.39017963
O 1.10765200 1.89126000 -4.74326400
O -3.36567736 3.44535522 0.53247617
Pu -4.43560794 0.93851712 -3.81506368
O 1.48609100 -4.64355700 -12.01145800
O -6.00680900 -7.85768100 -2.03563400
Pu 7.62760500 -3.05744000 5.98803500
O -4.53919500 -1.83531600 -7.15147300
O 6.96169100 -1.55725400 6.97866800
Pu 6.61614400 6.76547700 7.54664000
O -1.06703242 4.89009057 1.14518446
O -9.18135178 2.10609262 8.48911400
Pu 8.22318593 4.12185470 8.14395034
O -2.85175000 -9.27874900 -3.22504000
O -2.50083954 -2.28511358 9.48105557
Pu 6.16731600 4.04708800 -2.70506500
O -10.04362881 2.39681844 0.92724951
O -1.09560100 -4.19992800 -6.24295100
Pu -0.52413900 -3.18415400 3.35520300
O 7.39401100 -0.76132400 4.53710300
O -4.18604600 5.94416900 -1.56651900
Pu 2.86100400 -2.17255500 2.52606500
O 3.79762849 8.62842649 5.62894432
O 5.18065700 0.26271100 -2.54444100
Pu 3.05640600 2.14955400 3.17947400
O 2.53167351 -3.17099535 -7.15491355
O 8.55234035 3.13286903 9.84949571
Pu 1.14622449 -12.50414668 -0.99723594
O -7.59529500 1.68277300 2.41328500
O 0.06168800 -9.00894300 1.35555000
Pu -6.94262900 -8.49776400 -0.00885000
O -7.60407473 -0.66676211 -6.55742287
O 2.79989426 -3.93086161 1.72842998
Pu 7.01037158 -2.88786235 -7.93356819
O -4.34952453 -9.80257154 -5.06308020
O -0.77433034 -2.25219866 -1.13552831
Pu 6.17884100 -7.26087800 -2.97865200
O 7.74299600 -7.77086400 0.24816000
O -8.49877100 -5.18946800 3.39616200
Pu 3.39384900 4.64812700 -0.59715100
O -10.51006000 -2.03223100 -3.64736700
O -6.10797400 -3.76283500 1.59653200
Pu 0.15180600 -8.09479100 -7.47176300
O 6.12517000 -1.75337000 0.62788200
O -5.66628100 1.31387500 5.15268700
Pu -5.41103900 -4.14183500 8.07997300
O -2.42831623 -6.31643037 0.22151329
O 1.57876900 2.60026600 -9.32952700
Pu 6.22853200 3.22405100 1.69602500
O -7.47693118 -1.86641075 7.82511644
O 4.74216784 7.49145119 3.27526709
Pu -3.53779141 1.51377546 0.62539015
O 0.99174315 5.26774794 -0.77626402
O 0.38877400 -2.84296900 0.83419900
Pu 9.25694793 0.49742678 3.99678370
O 4.97494412 2.72788647 4.07844989
O 0.07033248 6.86033251 -5.15199082
Pu -4.54505100 -5.68957800 -0.33778600
O 1.39470100 -3.64499900 3.37879900
O -6.85296900 4.45892700 -1.72935300
Pu -1.91239600 -0.18682600 9.20828800
O -5.82660200 -1.66053600 3.72189000
O 8.94800600 -0.09632400 5.80855100
Pu 2.33173800 -0.92628900 -7.14417100
O 6.93913451 0.32487698 -5.73337080
O 2.59650519 -10.12378874 3.80921654
Pu 8.33664200 2.25399300 -5.10671300
O -3.91958100 -6.37159500 2.04235300
O -0.55294700 6.35294400 -10.45534700
Pu 3.32580700 7.59555200 7.29557500
O 6.21770000 0.91775800 8.98762600
O -1.65829808 -0.94138789 1.86221444
Pu 9.38581200 -4.37211200 -3.10004900
O -2.61954800 5.49008800 -2.92650600
O -2.50185571 0.38735107 -2.06255578
Pu -5.35250300 5.04974900 6.24050500
O -6.34851300 -5.64731600 7.17950800
O 1.33798100 7.73328700 1.30393200
Pu 5.93029700 -4.35787700 -4.66670800
O -0.50559100 -1.78864100 6.03807400
O -0.07906348 -0.89738604 9.02236139
Pu 4.45780177 7.43191078 -3.67800855
O -2.77452000 2.86221300 7.75071000
O -7.82172300 -6.60518640 -0.85579976
Pu 2.30032400 0.76782300 -10.35717800
O 2.26262500 -1.37222200 0.86394200
O -7.45296000 1.20873500 -2.90735400
Pu -0.53902400 -2.68577400 -3.70563800
O 6.79588813 8.21639646 6.07529419
O 9.91032300 4.54118600 3.29837700
Pu 8.06429600 4.73016600 4.69743400
O 12.42463675 -1.53764563 -0.45133968
O -2.41168530 1.75544411 10.58580780
Pu 2.57817000 -5.98309000 1.77187400
O -0.16170400 -6.57155800 -0.79662600
O -11.07995900 0.02076700 6.43239700
Pu -7.73172808 3.51971993 8.25271319
O 8.37330237 6.02068388 7.75493434
O 2.09299300 1.20672200 -2.31973000
Pu 11.37566700 -1.08278400 -2.08580600
O 1.22724851 -2.47623760 -2.84381382
O -4.43069100 -0.06205800 2.04338700
Pu -7.46658500 -1.41535300 -1.85640500
O -4.94326400 -1.53709500 -3.83304600
O -2.38302300 3.00707900 -6.69141100
Pu -6.00868200 -1.41283100 1.45033000
O 4.45315300 -5.90718600 -1.63960100
O 8.95479900 3.69036500 6.12787100
Pu -9.92311912 0.16526010 -3.35712293
O 10.00194573 -5.26242054 -1.30607914
O 3.09228800 -0.94968800 -1.43566700
Pu -7.33237000 7.25259600 3.04183600
O -1.94810773 9.30131946 -3.36901085
O 1.91641900 -8.45955800 -2.36429300
Pu -2.86219490 -4.07643113 10.35526416
O -3.57487400 9.24486000 4.73039000
O 5.03806700 8.68699800 -1.63122300
Pu -9.25394808 -3.45276168 -4.15681027
O 11.99135704 2.99647861 0.64602249
O -9.66842500 1.88973100 4.99002800
Pu 3.86066000 4.03870000 -8.92095300
O -0.94870700 -5.75269300 8.03225500
O -4.25895600 -7.08557300 4.61011600
Pu -9.55751250 4.31467125 -4.14075035
O 3.12525100 -7.38583100 0.17411500
O 9.44275700 -2.27779900 2.72106200
Pu 1.34401000 -2.46897900 -12.05492700
O -4.04803700 7.58085000 -4.29477400
O -8.75102000 -3.83907100 6.28575500
Pu -1.68294700 3.34629600 9.65444600
O -4.68739716 -8.68627797 0.40879919
O -2.23837200 -2.43518700 -8.96405800
Pu -2.44661795 4.94227823 -0.80299867
O -2.01529481 10.90841896 3.96042188
O 4.56193500 3.89600000 -4.32146000
Pu -3.95144640 1.77680727 6.58825268
O -4.49665800 -3.82564100 -1.26413000
O -1.30245200 -0.45441500 -3.52093000
Pu -1.61648500 -7.62259300 2.58374000
O -1.61242400 -4.54166000 5.02966100
O -7.62525300 -0.55536600 5.52431700
Pu -0.39142188 2.26406889 5.76108194
O 1.00355000 -3.71937700 6.33082200
O 5.09322937 -7.76312094 2.23397333
Pu 3.09604200 -1.06747100 -3.76488400
O -7.69089266 3.64995227 5.62031397
O -5.35922800 -1.50838300 -0.59592400
Pu 7.49704000 0.74740200 6.89508200
O -4.55289800 6.04433500 1.71621400
O 5.00826507 -6.17183745 -4.14543016
Pu -7.62414710 1.61654456 4.61229709
O 1.41257600 1.23706200 4.58315200
O 6.88430700 -0.82535000 -8.48053100
Pu -9.36758622 -1.77428422 6.89494957
O -9.78518137 5.36840202 -2.53716258
O 8.63451400 -3.82478200 0.67165800
Pu 2.42707500 -5.79945600 -2.17246700
O 11.61029900 -2.96597300 2.26151800
O 7.02275187 -2.81329884 -5.46320588
Pu -1.55761600 8.46516600 -5.73246000
O 7.58633200 -2.77305200 -2.69094900
O -10.37803739 2.00915392 -3.00865870
Pu -4.03566745 7.25821661 4.20125351
O -1.31049100 8.13644700 6.27586700
O -0.20138343 -3.53460717 -10.73994137
Pu -5.80605700 -1.40570500 -5.73121500
O 3.47601400 -0.16866400 -5.65721700
O -3.33226300 -0.20936200 7.25848000
Pu -3.54847800 -10.31754100 0.21868500
O -3.82973020 7.39999234 -9.08688129
O -8.33578100 -3.31484200 -2.27728100
Pu -4.80443300 -9.01462000 -3.20895300
O 1.54847500 -4.51854500 -0.52412600
O -2.24330681 7.27820529 0.09317595
Pu -6.45022100 4.05277200 2.60396900
O -0.48267753 -8.39630402 -3.18006948
O -5.86692000 6.94305700 4.96383200
Pu 8.86760600 -6.18129600 0.63323500
O 4.33422629 2.73348862 -7.06205370
O -3.73937296 10.16982417 7.37236582
Pu -0.84729400 1.46763500 -2.39522200
O -2.86755800 -2.74417400 3.17728800
O 3.38858500 -1.25256400 6.07140600
Pu 5.49879941 8.62147771 4.67383151
O -7.98406600 5.23683200 3.29137000
O -4.40087915 8.99764060 -1.35706553
Pu -2.56618422 4.14108734 2.88417623
O 2.03965600 -7.84028500 2.34402600
O -8.18863000 -1.32719000 1.16384700
Pu -7.66585266 1.15251231 -5.89455861
O 6.90103500 3.63199600 -4.92654700
O -6.49399271 -9.76965168 2.05477484
Pu -8.00435500 -5.00463100 1.44771000
O -2.65246900 -0.03346200 -10.05285900
O 7.68368900 -5.74689400 -3.85009800
Pu -1.09905990 -10.65870512 -3.30009641
O 2.76459500 5.92997000 8.02161100
O 0.08696135 -0.24554894 -7.27841074
Pu 0.38019600 -8.39817800 -0.90287500
O 4.07165800 -3.48501800 -1.88028800
O 6.88837700 -5.08147300 5.74057900
Pu 0.92014900 5.89921300 -2.97680800
O 10.17568838 -6.25755528 2.75104526
O 0.04149400 1.32116700 -0.19586600
Pu -3.36692775 11.42089236 5.50146555
O -1.76956009 -8.85219330 -8.05689044
O -2.89866300 -3.23953700 -2.95329700
Pu 6.51011024 7.97699133 -0.46837269
O 3.72232900 0.47978500 -8.10324800
O -3.09966500 9.06461800 -7.03842800
Pu -0.44114900 -0.59034000 0.06839300
O -2.87728500 -9.44218800 2.22557100
O -0.84129638 -7.58548881 4.33823843
Pu 5.85784520 4.50128140 -6.33892789
O -1.19668300 3.34169000 -1.09282000
O -5.31216700 4.74274200 4.14827000
Pu -0.87077900 -4.69125300 -0.08285600
O 7.72082100 2.46552300 -7.12620500
O -2.34540527 6.45978411 3.69232126
Pu 4.97694600 -1.23367200 4.58754400
O -4.28182800 -3.12233400 -5.43859100
O -8.13959100 3.56893200 0.09533600
Pu -4.61166700 7.44798700 -6.70152300
O 3.46776400 2.99601800 7.40204200
O 1.13668400 7.11776100 6.33667600
Pu -7.45413367 -5.15158142 5.29040989
O 4.03875300 -8.51226800 -3.71688100
O -8.08445200 -1.12050000 -3.95711400
Pu 1.55529200 -1.38895400 7.41242200
O -5.54309600 5.64538000 -7.03414500
O 1.35673715 -6.21225164 -3.87679090
Pu -1.99839656 4.42979345 -5.02571285
O -9.11366300 -8.60445500 -0.50884000
O 2.96233704 5.00133378 -2.73210804
Pu -6.73569600 2.45404600 -1.62288200
O 8.10025400 8.38876300 -1.50335300
O -3.27271100 -4.27315900 7.92893900
Pu -5.13610500 -8.24145600 2.67950000
O -1.94618700 -10.59748900 -1.12942600
O -0.05651100 -3.25883900 8.53098000
Pu 11.05469800 -1.44021800 1.11566200
O 5.50598700 0.23549900 6.09529200
O -5.31955044 -9.95808193 -1.57216330
Pu 3.86461100 -4.85372200 -8.15456700
O -4.86942800 3.33143500 -3.29965900
O 5.02492861 -8.99074192 -1.48744319
Pu -5.20842059 -3.70264064 -3.76619559
O 1.56297900 -4.64402900 -9.25105600
O 8.98905300 -3.88005100 4.81915100
Pu 4.87316000 4.05304200 5.79443000
O 0.26463300 4.54107300 -4.36833200
O 3.53722600 -6.34216800 5.15698500
Pu -3.97736600 -5.20561700 3.92622900
O 7.03473300 2.42379300 -0.16162600
O 3.43090300 -10.43057900 0.15524000
Pu -0.01514800 -3.11462300 -8.14316800
O -1.45362258 11.16008936 5.94111110
O -7.12413800 5.59206200 1.48259700
Pu 8.41656600 1.28612200 -1.04380400
O -1.34747224 -4.87091867 11.30777476
O 10.09828600 -0.38718200 -0.45369500
Pu 0.44035200 -4.94986900 9.58850400
O -2.97018200 -5.92539700 -8.15666900
O -3.93606900 -1.51681700 5.52390600
Pu -3.22592100 -0.89129900 3.63100600
O -1.36640300 2.47646000 -4.18161600
O 2.03160800 -4.19862700 8.59257900
Pu 10.47790100 -4.36116500 3.56338300
O -0.34944700 5.17919100 4.05217900
O 5.15275955 6.51349647 6.21704880
Pu -3.69678600 -4.46364800 -6.97961300
O 3.01614600 5.05667600 -6.44399900
O 0.52815500 -10.41892500 -2.14545500
Pu -1.28312857 -1.19304604 -10.73667623
O -1.95667500 -7.17961300 -5.80045800
O 10.15720800 3.20349000 -0.87164300
