420
ML-kMC step 200
Pu 1.53886500 5.73510600 4.30004400
O 2.47819500 0.71693100 7.75585400
O 4.83688500 -2.82043400 -3.82049500
Pu 2.75665403 3.00429607 -5.31960819
O -5.60785000 8.20134500 1.98939300
O 10.45921635 -2.77282109 -3.25580256
Pu -7.90403800 6.00035400 -0.28430400
O 3.05010100 -11.95864400 -1.91397700
O -7.09371600 -3.45905200 -4.81284000
Pu -4.27057300 3.60264200 -7.45970400
O 1.20480600 -6.83943700 6.45926600
O 5.14728300 7.48046200 8.64912300
Pu 5.62173600 -5.98621200 3.89690900
O 2.28542900 2.55746600 0.28308000
O 5.75824197 6.52516250 -5.17395581
Pu -1.22988700 5.53955800 6.45648400
O -5.99846400 0.67681700 -5.05936400
O -4.34697200 1.01176200 -1.52062300
Pu -5.38170188 5.31335960 -3.45924804
O 8.19026700 2.60766700 -2.72590200
O 4.25403860 -0.74741325 2.41596138
Pu 1.67480900 3.92463200 8.19814000
O -4.61853100 1.30337800 -8.11337200
O -6.16686000 7.49445100 -0.93600100
Pu 0.23985515 -5.53404262 -10.79755440
O 1.87116766 7.77554648 -2.46581156
O -5.74122070 2.74209732 7.93998625
Pu 5.84124071 -3.26587191 -1.07559996
O -1.34938117 2.86013236 1.88379376
O -0.51471600 3.49046600 7.93334900
Pu -0.47473804 6.92201770 1.65564028
O 4.72434900 -5.57962800 1.92117600
O 0.85656297 4.22891626 6.01697444
Pu -3.63866000 -0.52157900 -8.42978200
O 1.29111900 -6.59903700 -6.18452500
O 0.79080800 9.00546100 -5.11735200
Pu 0.29764600 3.11177300 0.67131700
O -2.03261321 4.26078354 -9.28715687
O 4.67055666 -3.23547999 3.94245874
Pu 0.27044978 4.70317514 -9.97850474
O -6.75417200 5.08918500 7.67986900
O 0.68889800 -1.84355300 -9.64986100
Pu -3.61902000 -7.98271400 -6.93226700
O -4.74842034 -6.42240114 -7.12368005
O -5.84866700 -5.69487800 4.27947400
Pu -0.85907900 -6.29023000 5.95933500
O 6.19140100 2.56585500 6.36241500
O 1.28126800 -12.01946100 0.97887600
Pu -2.66411449 8.25557914 7.83541720
O -2.10230696 2.24276978 4.93078896
O -9.60845693 6.28354839 0.85049783
Pu 5.78762800 0.85727000 -8.00512800
O 3.71962381 -7.03505665 8.48617087
O 0.44177900 7.47437200 3.53696600
Pu 4.54468300 0.78074700 7.86967000
O -4.34249500 -5.99118700 -3.55614900
O -9.57994079 -5.18016480 0.38757342
Pu 7.33917300 -2.89513300 1.89059500
O 1.41436700 3.67548300 3.14296400
O -1.00761700 7.76550900 -2.32306000
Pu 0.20782100 9.45264200 -2.49726400
O 5.06174800 8.91816000 1.46941200
O -6.29488900 -6.51767700 0.95464200
Pu -1.92228489 7.44282406 -9.27470063
O 4.19017900 6.96661300 0.14645300
O 4.24769323 1.83664243 -10.00826572
Pu 2.44230500 -8.37184900 4.55171800
O -4.78772605 2.31232166 2.62131890
O 1.69331700 9.96081900 -0.77310200
Pu 2.90226900 -5.26113500 6.83299200
O 2.81181000 -1.38149400 -11.31895400
O 0.53109400 -7.33024600 -9.21110200
Pu -9.12942555 5.21961356 5.16744240
O 9.62309600 0.67361400 1.92493900
O 5.18929035 -3.37107360 -8.70707694
Pu -0.89753300 -6.58576200 -4.20102100
O -8.57318400 7.18069000 5.12379500
O -7.79846037 5.61974054 -4.46496816
Pu 5.12475982 6.13436814 1.99348782
O 4.05089500 4.33836000 1.39865000
O -8.48721192 2.76957149 -5.31731982
Pu 12.10782256 2.96402051 -1.38086855
O 6.71735844 4.69185782 6.69596228
O -2.25043144 6.15183454 7.97480635
Pu 3.75838300 0.92697500 -0.90412500
O 0.28629900 -1.59193300 -5.12497600
O -5.84274835 -3.28055038 6.41070965
Pu -1.00927100 0.89982800 -5.82001000
O 4.33504612 5.31429300 3.78309131
O 3.55994600 7.97881000 -5.31546100
Pu -11.11177789 2.26020664 6.39584039
O -10.21688505 3.93783177 6.49498918
O 13.23064974 3.99386262 -2.81085513
Pu -10.12254467 4.27912554 1.39612742
O 5.70980000 5.92921100 -1.79094400
O -3.37536609 4.43873091 5.55216049
Pu -9.30400500 0.36463800 0.72353800
O -10.15333940 4.48936733 3.57754218
O 1.07715500 -8.94809500 -6.03352800
Pu -9.79609127 -6.00669699 -1.48811842
O -2.39937593 -0.12852342 -0.12019766
O 2.23908940 4.79111612 -9.67109749
Pu -1.75476872 -3.01294484 7.02546389
O 4.59169700 1.83317000 1.70933800
O -3.70632300 6.69899000 6.68802800
Pu -4.75645800 7.83684600 0.30051600
O -3.61479567 0.58213364 -5.62229243
O 6.71472100 4.67905700 3.33267000
Pu -0.71799130 9.27082002 4.77936588
O 0.61160398 4.36157305 9.75623351
O 8.37452600 2.65785800 2.65085700
Pu -5.84394343 -1.33786758 5.77321167
O 0.00143415 0.65993360 -10.87653892
O 4.86340900 3.10655100 -1.15927800
Pu 7.20324500 -1.09186100 -4.00110500
O 7.18569800 -5.72539300 -1.40454900
O -2.66079087 6.26416398 -6.37697989
Pu 1.99152812 -10.25725869 1.65850463
O 6.36118375 5.37654228 0.74245204
O 11.77474060 0.79080296 -2.39376836
Pu 9.84427400 3.67972000 1.44380400
O 7.51170163 -4.84757684 2.69401718
O -1.39248900 1.14023900 7.92487500
Pu -3.34750400 -1.57964900 -1.81020800
O -0.39576700 7.96710300 -7.59348400
O -0.35396800 -1.75939500 -12.79463100
Pu 1.83509900 7.13678900 -6.40224100
O -10.37390700 -5.05773100 -3.05501100
O -0.38893614 -12.88007175 -2.18787930
Pu 1.82555200 -2.56849500 -0.67833500
O -7.38558000 0.34775600 -0.89551100
O -4.72757052 -4.41068565 9.85876270
Pu 3.31584500 -10.05104900 -2.20311800
O 6.27584383 -4.56751571 -6.81355171
O -0.32929618 -4.60535454 -2.48966886
Pu 3.08139344 8.70594520 0.23966335
O 8.65931123 0.13755688 -3.44328601
O 4.02806900 -6.67219500 -7.21254300
Pu 2.62309300 -7.63847900 -5.23304700
O -4.28900400 4.13236200 -5.40284300
O -9.62992643 -0.34213543 -1.45788207
Pu -3.23789700 7.83714400 -2.58772300
O -1.03559400 -5.04624200 2.11988200
O 5.08545976 5.50392143 -8.06584767
Pu 5.31045875 -8.57279531 0.39017963
O 1.10765200 1.89126000 -4.74326400
O -3.36371529 3.57407113 0.56160020
Pu -4.43560794 0.93851712 -3.81506368
O 1.48609100 -4.64355700 -12.01145800
O -6.00680900 -7.85768100 -2.03563400
Pu 7.62760500 -3.05744000 5.98803500
O -4.53919500 -1.83531600 -7.15147300
O 6.96169100 -1.55725400 6.97866800
Pu 6.61614400 6.76547700 7.54664000
O -1.10739465 4.87596063 0.93389884
O -9.18135178 2.10609262 8.48911400
Pu 8.22318593 4.12185470 8.14395034
O -2.85175000 -9.27874900 -3.22504000
O -2.48329202 -2.26916364 9.41463743
Pu 6.16731600 4.04708800 -2.70506500
O -10.04362881 2.39681844 0.92724951
O -1.09560100 -4.19992800 -6.24295100
Pu -0.52413900 -3.18415400 3.35520300
O 7.39401100 -0.76132400 4.53710300
O -4.18604600 5.94416900 -1.56651900
Pu 2.86100400 -2.17255500 2.52606500
O 3.67165149 8.34160819 5.44223705
O 5.18065700 0.26271100 -2.54444100
Pu 3.05640600 2.14955400 3.17947400
O 2.53167351 -3.17099535 -7.15491355
O 8.66057424 3.20702063 9.92790526
Pu 1.15000797 -12.57274469 -1.06758379
O -7.59529500 1.68277300 2.41328500
O 0.06168800 -9.00894300 1.35555000
Pu -6.94262900 -8.49776400 -0.00885000
O -7.60407473 -0.66676211 -6.55742287
O 2.79989426 -3.93086161 1.72842998
Pu 7.01037158 -2.88786235 -7.93356819
O -4.40281568 -9.53754590 -5.26445365
O -0.77433034 -2.25219866 -1.13552831
Pu 6.16328975 -7.23016143 -2.97368852
O 7.67649856 -7.70418947 0.24607282
O -8.41023945 -5.15159369 3.31029303
Pu 3.28528691 4.65307205 -0.50136303
O -10.38963036 -1.99843039 -3.45283499
O -6.10797400 -3.76283500 1.59653200
Pu 0.15180600 -8.09479100 -7.47176300
O 6.12517000 -1.75337000 0.62788200
O -5.66628100 1.31387500 5.15268700
Pu -5.41103900 -4.14183500 8.07997300
O -2.42831623 -6.31643037 0.22151329
O 1.61662672 2.36362700 -9.18198916
Pu 6.22853200 3.22405100 1.69602500
O -7.35390512 -1.83589620 7.69651341
O 4.74216784 7.49145119 3.27526709
Pu -3.53779141 1.51377546 0.62539015
O 0.99174315 5.26774794 -0.77626402
O 0.38877400 -2.84296900 0.83419900
Pu 9.25582730 0.49786505 3.99652965
O 4.97494412 2.72788647 4.07844989
O 0.07033248 6.86033251 -5.15199082
Pu -4.54505100 -5.68957800 -0.33778600
O 1.39470100 -3.64499900 3.37879900
O -6.76723746 4.36346810 -1.72012330
Pu -1.91239600 -0.18682600 9.20828800
O -5.84303694 -1.63865566 3.80140503
O 8.89397610 -0.09580432 5.77349600
Pu 2.33173800 -0.92628900 -7.14417100
O 6.93913451 0.32487698 -5.73337080
O 2.60037939 -10.10916348 3.79548272
Pu 8.33664200 2.25399300 -5.10671300
O -3.91958100 -6.37159500 2.04235300
O -0.64152625 6.41579971 -10.42305781
Pu 3.32580700 7.59555200 7.29557500
O 6.21770000 0.91775800 8.98762600
O -1.65829808 -0.94138789 1.86221444
Pu 9.38581200 -4.37211200 -3.10004900
O -2.61954800 5.49008800 -2.92650600
O -2.50185571 0.38735107 -2.06255578
Pu -5.35250300 5.04974900 6.24050500
O -6.22118188 -5.53429594 7.03565667
O 1.33798100 7.73328700 1.30393200
Pu 5.93029700 -4.35787700 -4.66670800
O -0.50559100 -1.78864100 6.03807400
O -0.07906348 -0.89738604 9.02236139
Pu 4.45780177 7.43191078 -3.67800855
O -2.77452000 2.86221300 7.75071000
O -7.82172300 -6.60518640 -0.85579976
Pu 2.30032400 0.76782300 -10.35717800
O 2.26262500 -1.37222200 0.86394200
O -7.50643590 1.18997138 -2.97616498
Pu -0.53902400 -2.68577400 -3.70563800
O 6.97259388 8.33594885 6.01157439
O 9.91032300 4.54118600 3.29837700
Pu 8.06429600 4.73016600 4.69743400
O 12.42463675 -1.53764563 -0.45133968
O -2.41168530 1.75544411 10.58580780
Pu 2.57817000 -5.98309000 1.77187400
O -0.16170400 -6.57155800 -0.79662600
O -10.77828509 0.01995812 6.25746914
Pu -7.79211668 3.48447156 8.06752772
O 8.37330237 6.02068388 7.75493434
O 2.09299300 1.20672200 -2.31973000
Pu 11.28489924 -1.10517669 -2.07837015
O 1.48891994 -2.32384903 -2.81436943
O -4.43069100 -0.06205800 2.04338700
Pu -7.46658500 -1.41535300 -1.85640500
O -4.94326400 -1.53709500 -3.83304600
O -2.38302300 3.00707900 -6.69141100
Pu -6.00868200 -1.41283100 1.45033000
O 4.45315300 -5.90718600 -1.63960100
O 8.95479900 3.69036500 6.12787100
Pu -9.92311912 0.16526010 -3.35712293
O 10.00194573 -5.26242054 -1.30607914
O 3.09228800 -0.94968800 -1.43566700
Pu -7.25533926 7.24447820 3.25241756
O -1.94810773 9.30131946 -3.36901085
O 2.11475584 -8.34860476 -2.10064062
Pu -2.86219490 -4.07643113 10.35526416
O -3.57487400 9.24486000 4.73039000
O 5.03806700 8.68699800 -1.63122300
Pu -9.25394808 -3.45276168 -4.15681027
O 11.87027112 2.85041899 0.62380124
O -9.66842500 1.88973100 4.99002800
Pu 3.86066000 4.03870000 -8.92095300
O -0.94870700 -5.75269300 8.03225500
O -4.25895600 -7.08557300 4.61011600
Pu -9.55751250 4.31467125 -4.14075035
O 3.12525100 -7.38583100 0.17411500
O 9.44275700 -2.27779900 2.72106200
Pu 1.35012611 -2.49277936 -12.00553465
O -4.04803700 7.58085000 -4.29477400
O -8.75102000 -3.83907100 6.28575500
Pu -1.68294700 3.34629600 9.65444600
O -4.68739716 -8.68627797 0.40879919
O -2.23837200 -2.43518700 -8.96405800
Pu -2.44661795 4.94227823 -0.80299867
O -2.08585356 10.48133565 3.79701582
O 4.56193500 3.89600000 -4.32146000
Pu -3.95144640 1.77680727 6.58825268
O -4.49665800 -3.82564100 -1.26413000
O -1.30245200 -0.45441500 -3.52093000
Pu -1.61648500 -7.62259300 2.58374000
O -1.61242400 -4.54166000 5.02966100
O -7.62525300 -0.55536600 5.52431700
Pu -0.39142188 2.26406889 5.76108194
O 1.00355000 -3.71937700 6.33082200
O 5.09322937 -7.76312094 2.23397333
Pu 3.09604200 -1.06747100 -3.76488400
O -7.69089266 3.64995227 5.62031397
O -5.52864133 -1.38037055 -0.52358956
Pu 7.37658302 0.73523106 6.78434043
O -4.55289800 6.04433500 1.71621400
O 5.00826507 -6.17183745 -4.14543016
Pu -7.62414710 1.61654456 4.61229709
O 1.41257600 1.23706200 4.58315200
O 6.88430700 -0.82535000 -8.48053100
Pu -9.26030741 -1.72009577 6.74518001
O -9.73013185 5.33924289 -2.51577073
O 8.63451400 -3.82478200 0.67165800
Pu 2.42707500 -5.79945600 -2.17246700
O 11.57549868 -2.95890847 2.24791714
O 7.09921407 -2.72582340 -5.48702519
Pu -1.55761600 8.46516600 -5.73246000
O 7.58633200 -2.77305200 -2.69094900
O -10.37803739 2.00915392 -3.00865870
Pu -4.03566745 7.25821661 4.20125351
O -1.31049100 8.13644700 6.27586700
O -0.19842214 -3.48357625 -10.58437147
Pu -5.80605700 -1.40570500 -5.73121500
O 3.47601400 -0.16866400 -5.65721700
O -3.33226300 -0.20936200 7.25848000
Pu -3.54847800 -10.31754100 0.21868500
O -3.85605440 7.39691172 -9.08320206
O -8.33578100 -3.31484200 -2.27728100
Pu -4.80443300 -9.01462000 -3.20895300
O 1.54847500 -4.51854500 -0.52412600
O -2.24330681 7.27820529 0.09317595
Pu -6.45022100 4.05277200 2.60396900
O -0.48267753 -8.39630402 -3.18006948
O -5.86692000 6.94305700 4.96383200
Pu 8.86760600 -6.18129600 0.63323500
O 4.33422629 2.73348862 -7.06205370
O -3.62782598 10.08851112 7.35258327
Pu -0.84729400 1.46763500 -2.39522200
O -2.86755800 -2.74417400 3.17728800
O 3.59897650 -1.23397845 5.97495200
Pu 5.49879941 8.62147771 4.67383151
O -7.98406600 5.23683200 3.29137000
O -4.40087915 8.99764060 -1.35706553
Pu -2.56618422 4.14108734 2.88417623
O 2.03965600 -7.84028500 2.34402600
O -8.18863000 -1.32719000 1.16384700
Pu -7.66585266 1.15251231 -5.89455861
O 6.90103500 3.63199600 -4.92654700
O -6.38405574 -9.60455670 2.02009043
Pu -7.97217582 -5.00785097 1.43060251
O -2.65246900 -0.03346200 -10.05285900
O 7.68368900 -5.74689400 -3.85009800
Pu -1.09905990 -10.65870512 -3.30009641
O 2.72509674 5.74376257 8.00570829
O 0.08696135 -0.24554894 -7.27841074
Pu 0.38019600 -8.39817800 -0.90287500
O 4.07165800 -3.48501800 -1.88028800
O 6.83594627 -4.91230380 5.57163110
Pu 0.92014900 5.89921300 -2.97680800
O 10.17568838 -6.25755528 2.75104526
O 0.04149400 1.32116700 -0.19586600
Pu -3.32170860 11.26752469 5.42772356
O -1.76956009 -8.85219330 -8.05689044
O -2.89866300 -3.23953700 -2.95329700
Pu 6.51011024 7.97699133 -0.46837269
O 3.72232900 0.47978500 -8.10324800
O -3.13028832 9.08710179 -6.95290089
Pu -0.44114900 -0.59034000 0.06839300
O -2.87728500 -9.44218800 2.22557100
O -0.84129638 -7.58548881 4.33823843
Pu 5.85784520 4.50128140 -6.33892789
O -1.19668300 3.34169000 -1.09282000
O -5.31216700 4.74274200 4.14827000
Pu -0.87077900 -4.69125300 -0.08285600
O 7.53841525 2.45513499 -7.26701376
O -2.34540527 6.45978411 3.69232126
Pu 4.97694600 -1.23367200 4.58754400
O -4.28182800 -3.12233400 -5.43859100
O -8.13959100 3.56893200 0.09533600
Pu -4.51045232 7.28438249 -6.55441547
O 3.46776400 2.99601800 7.40204200
O 1.13668400 7.11776100 6.33667600
Pu -7.45413367 -5.15158142 5.29040989
O 4.03875300 -8.51226800 -3.71688100
O -8.08445200 -1.12050000 -3.95711400
Pu 1.32801826 -1.29298041 7.33502850
O -5.54309600 5.64538000 -7.03414500
O 1.35673715 -6.21225164 -3.87679090
Pu -1.99839656 4.42979345 -5.02571285
O -9.09835300 -8.56730273 -0.50013422
O 3.22838310 4.94634778 -2.79533678
Pu -6.73569600 2.45404600 -1.62288200
O 8.10025400 8.38876300 -1.50335300
O -3.27271100 -4.27315900 7.92893900
Pu -5.13610500 -8.24145600 2.67950000
O -1.97222229 -10.62802563 -0.97756591
O -0.06807393 -3.24782301 8.57669418
Pu 11.08318171 -1.35256455 1.11183356
O 5.50598700 0.23549900 6.09529200
O -5.30057900 -9.93428028 -1.55438072
Pu 3.86461100 -4.85372200 -8.15456700
O -4.86942800 3.33143500 -3.29965900
O 5.07056935 -9.28131717 -1.48554911
Pu -5.20842059 -3.70264064 -3.76619559
O 1.56297900 -4.64402900 -9.25105600
O 8.89470323 -3.83941096 4.76860837
Pu 4.87316000 4.05304200 5.79443000
O 0.26463300 4.54107300 -4.36833200
O 3.53722600 -6.34216800 5.15698500
Pu -3.97736600 -5.20561700 3.92622900
O 7.03473300 2.42379300 -0.16162600
O 3.43090300 -10.43057900 0.15524000
Pu -0.01514800 -3.11462300 -8.14316800
O -1.45362258 11.16008936 5.94111110
O -7.12413800 5.59206200 1.48259700
Pu 8.41656600 1.28612200 -1.04380400
O -1.34747224 -4.87091867 11.30777476
O 10.09828600 -0.38718200 -0.45369500
Pu 0.44035200 -4.94986900 9.58850400
O -2.97018200 -5.92539700 -8.15666900
O -3.93606900 -1.51681700 5.52390600
Pu -3.22592100 -0.89129900 3.63100600
O -1.36640300 2.47646000 -4.18161600
O 2.03160800 -4.19862700 8.59257900
Pu 10.47790100 -4.36116500 3.56338300
O -0.34944700 5.17919100 4.05217900
O 5.15275955 6.51349647 6.21704880
Pu -3.69678600 -4.46364800 -6.97961300
O 3.01614600 5.05667600 -6.44399900
O 0.52815500 -10.41892500 -2.14545500
Pu -1.28312857 -1.19304604 -10.73667623
O -1.95667500 -7.17961300 -5.80045800
O 10.15720800 3.20349000 -0.87164300
