420
ML-kMC step 8500
Pu 1.41343293 5.05560400 3.76996842
O 1.69446813 1.52011342 6.58592186
O 5.04327914 -2.74908284 -3.69198698
Pu 2.29027814 3.16534737 -4.80672824
O -5.04252738 7.80744081 2.48391211
O 8.94305455 -2.28011395 -3.43051747
Pu -7.33516933 5.62987231 -0.64988081
O 2.96145896 -11.18516850 -1.82217452
O -6.07235958 -3.35632409 -4.60816229
Pu -3.81323795 3.48502592 -7.02954899
O 0.96272270 -6.03805210 6.21401415
O 4.39182605 6.35315416 7.98061149
Pu 4.91053440 -5.58224977 3.34860940
O 2.23456048 2.70643219 0.60812378
O 5.43279967 5.61655030 -4.01718302
Pu -1.64297126 4.94132167 5.85254430
O -5.25425904 0.78034456 -5.07823718
O -4.44290000 1.24217341 -1.39115802
Pu -5.05320522 4.87209026 -3.32165828
O 6.78913083 2.09745699 -2.39825201
O 3.27706274 -0.32779517 3.14373115
Pu 1.69776645 3.88811445 7.30378111
O -4.95002206 1.75895856 -7.38259948
O -6.33679633 7.28189736 -0.51971416
Pu 0.17197958 -4.97465051 -10.05479798
O 2.04331917 6.84101508 -2.17777195
O -4.76713541 3.15115734 7.03791139
Pu 5.33515333 -3.62036297 -1.20824246
O -1.62844039 2.47058151 1.90566898
O -0.35072229 3.77396996 7.14663304
Pu -0.62705944 6.72683539 1.50448243
O 3.86544168 -5.60556587 1.61587699
O 0.84677029 3.85720814 5.28099755
Pu -3.74797596 -0.19380164 -7.64735231
O 1.93511200 -6.19788778 -6.52389069
O 0.53526287 8.16564095 -4.50612668
Pu 0.21346566 3.28773245 0.71139613
O -2.29967068 4.10288243 -8.26760539
O 4.53832247 -3.27571260 3.96607481
Pu -0.09250288 3.25720036 -8.19192638
O -6.94286801 4.78032622 6.84273260
O 0.72490356 -1.22752218 -8.69284782
Pu -3.31884416 -6.99812983 -6.23816781
O -3.85099995 -5.22572699 -5.20397688
O -5.32460750 -5.87903979 3.80860022
Pu -1.27378603 -5.83615379 5.70309437
O 5.69935669 2.46394677 6.36208375
O 1.07816312 -10.28113970 0.62962823
Pu -3.09110395 7.31421238 7.33628758
O -2.06726171 1.57832787 4.56067186
O -8.41866961 5.61507226 1.14326642
Pu 4.92940492 0.90259643 -6.31953279
O 2.78965320 -5.38423587 7.39830861
O 0.65130528 6.76938447 3.24774432
Pu 3.79141806 1.10008260 6.73210194
O -3.55070548 -5.90535725 -2.76455520
O -8.64978037 -4.26577454 -0.11600711
Pu 6.76043749 -2.44053962 1.89788311
O 1.12642747 3.36413008 2.52990068
O -0.82092587 6.80568783 -2.17837862
Pu 0.37618192 8.54940721 -2.54012864
O 5.10079619 8.19025737 0.94556810
O -5.82160607 -6.54117825 1.21858432
Pu -1.88943356 6.21631605 -8.08421643
O 4.00967367 6.42744174 0.40049272
O 3.98573439 2.42145225 -9.72008192
Pu 1.78296294 -7.45920717 4.85350730
O -4.06172088 2.49855707 2.23060905
O 1.57850009 9.20370859 -1.16473147
Pu 2.37255123 -4.31440210 5.68691973
O 2.79374866 -0.96196450 -9.48766254
O 0.23830441 -5.79595437 -8.17510221
Pu -8.47092896 4.36833462 4.88182787
O 9.46859022 0.78637124 2.01675271
O 4.26816019 -3.15610622 -6.62669391
Pu -1.00235871 -6.10851401 -3.62010436
O -8.30391858 6.36317131 4.14120827
O -6.97550811 5.74766453 -3.67760458
Pu 4.97648217 5.98110947 2.21483531
O 4.10301632 4.49264894 1.33335301
O -7.93018620 3.20237558 -5.21617710
Pu 10.28412691 3.03866759 -1.84856530
O 6.38335527 4.68430298 6.13306377
O -1.86031466 5.77119335 7.91218511
Pu 3.23456894 1.53144611 -0.80135575
O -0.28697962 -1.30386929 -5.82678354
O -5.37986904 -3.48707020 4.71205230
Pu -0.89427502 0.76322998 -5.65563610
O 3.33108259 5.40002695 3.61944950
O 2.89195303 6.95868555 -4.87894223
Pu -9.68446824 1.18516146 6.44551571
O -8.76797976 3.04653797 6.40086742
O 9.58512214 2.74409355 -3.72572715
Pu -8.93694651 3.38322238 1.66547104
O 4.91967288 5.57211674 -1.54759261
O -3.46040685 3.74182310 5.05977057
Pu -8.88168397 0.14092898 0.61924860
O -9.88220598 3.83968659 3.31490773
O 1.49778260 -8.48635652 -5.51671913
Pu -7.94081349 -5.27813113 -1.82402746
O -2.49009969 -0.55316813 -0.06065946
O 1.49276684 3.21677673 -9.59287466
Pu -1.65165643 -2.64117797 5.99171030
O 4.01168577 1.32015851 1.21254229
O -3.78376249 5.87271054 5.80503991
Pu -4.43243129 7.14739384 0.47479562
O -2.88570449 0.31953762 -5.78715280
O 6.00976352 4.63964350 3.53526422
Pu -0.36988151 7.90867653 4.49988824
O 0.60445638 3.72829248 9.09864024
O 7.39677628 2.12698562 2.95210272
Pu -5.07418969 -0.95490027 5.20839338
O 0.70976298 0.59846370 -10.52206647
O 4.51631357 3.02045579 -1.25851671
Pu 6.59702416 -1.25723674 -3.80701714
O 6.88455511 -4.90914328 -1.55565405
O -2.27728420 5.92117416 -5.75146058
Pu 2.09653879 -9.10319384 1.89900223
O 6.34805991 5.03543176 0.96324054
O 10.14203150 0.91341134 -2.06123508
Pu 9.10874409 2.98336155 1.46466818
O 6.46941583 -4.44919047 1.96207386
O -1.46286369 1.47871492 7.11579995
Pu -3.43911923 -1.21799293 -1.80464373
O -0.32365321 7.15815516 -6.80335194
O -0.47346602 -1.46645984 -11.21440208
Pu 1.35927141 6.38184089 -5.94783042
O -8.93974111 -4.75627576 -3.65891858
O -0.74429717 -11.37445521 -1.93235706
Pu 2.06026057 -2.30320099 -1.14043665
O -7.47852840 0.71413326 -0.89811728
O -3.82139664 -3.87716178 8.66444198
Pu 3.65474389 -9.39734703 -2.23402865
O 6.29652683 -4.52400732 -6.96679265
O -0.67394145 -4.34663123 -2.66937831
Pu 3.07762775 8.16183615 -0.05250730
O 8.11950081 0.26334389 -2.99246769
O 3.95359872 -5.54113216 -5.77939984
Pu 2.92265872 -7.02850436 -4.68634999
O -3.52996150 3.63965403 -4.77596141
O -9.40041368 -0.48626007 -1.14424077
Pu -3.10151679 7.47086429 -2.30289305
O -0.01439799 -5.20544022 1.78976272
O 4.71184918 4.95886236 -7.24805870
Pu 4.79441041 -7.51546773 0.51953535
O 0.77982889 1.51036243 -4.58322101
O -3.56414398 3.51678886 0.03266717
Pu -3.70566081 1.36517808 -3.69304663
O 1.53129343 -4.09373773 -11.10966712
O -6.01781561 -7.14438835 -1.97480585
Pu 6.79722580 -3.67984909 5.89928357
O -4.51118303 -2.01748849 -7.33487922
O 5.89692129 -1.95496445 6.31794507
Pu 6.39630903 6.40872315 7.24476866
O -1.16421114 4.64855937 0.93495636
O -8.03583751 1.10764370 7.68276495
Pu 7.59070505 3.10262473 6.85165061
O -2.29268036 -7.96012497 -3.85895666
O -2.28715982 -2.16979796 8.01640303
Pu 5.72818030 3.87865145 -2.56817397
O -9.92583564 1.79859764 0.94171052
O -1.25040726 -3.74930455 -6.04504749
Pu -0.43753094 -3.46398274 3.00160063
O 6.52930530 -1.29055289 3.54893178
O -4.30448769 5.82235291 -1.45196633
Pu 2.47933029 -1.89694327 2.05721792
O 3.63235673 8.51150458 6.29823207
O 4.76171794 -0.03949532 -3.94338749
Pu 2.66044506 1.95839011 2.76636977
O 1.79024357 -2.73912200 -6.38279191
O 7.79304603 1.52779722 7.95866050
Pu 1.14599507 -11.38010783 -1.03204005
O -7.52788485 1.80695443 1.95688871
O -0.31846114 -8.46275238 1.16558347
Pu -6.55440055 -7.97838009 -0.10983342
O -7.00510670 -0.36814595 -6.39434969
O 2.83874413 -3.44562280 0.80333823
Pu 6.25818437 -2.47203699 -7.26568675
O -4.56802931 -8.07227828 -5.04498674
O -0.13288842 -2.29768558 -1.30839830
Pu 5.95320287 -6.73600658 -2.41430235
O 6.68160962 -6.92272910 -0.17335344
O -7.82513648 -5.62092904 2.91664358
Pu 3.14783797 4.74625311 -0.43749939
O -9.89449166 -1.28180825 -4.10006164
O -5.49406502 -3.54859248 1.88799784
Pu 0.11955936 -7.44496974 -6.83013482
O 5.36956670 -2.37671392 0.48145839
O -5.16933925 1.12484080 5.16966419
Pu -4.87687591 -3.67563333 6.95240683
O -2.28322967 -5.75948552 -0.32540332
O 1.49979922 2.31708241 -7.45960271
Pu 5.75959870 3.02263498 2.01690203
O -6.14989063 -2.05906074 6.81560990
O 5.01871926 7.55853359 3.28468781
Pu -3.17810751 1.49063146 0.37929822
O 1.23271191 4.73524272 -0.49852495
O -0.28214536 -3.00796012 0.95328626
Pu 8.08360938 0.40506570 3.69970149
O 4.25716339 2.69756558 3.62394067
O -0.43648589 5.99968128 -4.55412829
Pu -4.25467159 -5.40148442 -0.23806527
O 1.74994138 -3.65954117 3.42315248
O -6.72399252 4.16218217 -2.04764386
Pu -1.83202186 -0.12754377 8.41890073
O -6.01137830 -0.70552970 3.28659180
O 8.28610464 -0.18157331 5.59336303
Pu 1.99102555 -0.70724006 -7.10949699
O 6.74385796 0.32066411 -5.08990331
O 2.05781355 -9.18447859 3.91537444
Pu 7.92551841 1.91720137 -4.44340678
O -3.46130149 -5.80775689 1.76823742
O -0.20778589 5.23614739 -8.60538593
Pu 2.69013507 6.90401295 6.71042835
O 4.94220513 -0.00494760 7.97571058
O -0.33662393 -0.97968756 2.40198024
Pu 8.51503407 -4.29417805 -2.72624524
O -2.53517548 5.20928622 -3.00130172
O -2.37094170 0.84836305 -2.04631600
Pu -5.34999822 4.73961461 5.60351423
O -6.37235910 -5.00090488 6.54322594
O 1.60029743 6.93642659 0.76679270
Pu 5.55747604 -4.57627685 -5.02445192
O -0.19472970 -1.24034164 5.70085512
O 0.25627074 -0.34911281 8.39116669
Pu 3.97356740 6.62115721 -3.07895489
O -2.54824915 3.56596531 7.05008463
O -6.22717075 -5.06919806 -0.63050976
Pu 2.43873181 1.14489432 -9.72178200
O 1.52802640 -1.02616756 0.42135829
O -7.37488403 1.38429718 -3.10148341
Pu -0.51104973 -2.41555353 -3.91581119
O 6.65546472 8.07500814 6.09984660
O 8.87046651 4.64158531 2.57596092
Pu 7.98765062 4.73394088 4.25732451
O 10.38723304 -1.67977917 -0.65936250
O -2.25100534 1.59385604 9.37261581
Pu 1.91842346 -5.45048224 1.27946917
O 0.40515536 -6.28623603 -0.13285165
O -9.81788052 -0.79257520 6.77318974
Pu -6.73336436 2.73485687 7.28506338
O 8.33630675 5.25669224 6.31911569
O 1.56412350 1.74521414 -2.04234449
Pu 9.51213532 -0.90079253 -2.19124068
O 1.65391412 -2.20171138 -3.29418257
O -4.30879639 0.18623853 1.35133748
Pu -7.00538267 -1.16238097 -1.80894943
O -4.81627574 -0.74582380 -3.09353899
O -1.37528506 2.97659270 -6.45082694
Pu -5.56425452 -1.45993701 1.27704117
O 4.77354061 -5.71317387 -0.91052772
O 8.40732682 2.77470805 5.03378648
Pu -9.48628362 0.47816871 -2.85387915
O 9.23313563 -5.43522934 -1.34911461
O 3.40155440 -0.61628151 -1.65533777
Pu -6.93834344 6.59876360 2.66701325
O -1.77762996 8.83789532 -3.36199890
O 2.34724373 -7.66492201 -2.13696953
Pu -1.91910383 -4.02943160 9.00908713
O -3.38320715 8.38239408 4.81852791
O 4.38566983 8.04989868 -1.62158833
Pu -8.47967114 -2.94463856 -4.31788976
O 10.62096120 2.74531885 0.15395872
O -8.97999627 1.25556007 4.43605329
Pu 3.28342115 3.69200595 -8.08837847
O -0.65181694 -5.71255665 7.77588276
O -2.66774757 -6.34657274 4.03544174
Pu -8.29364057 4.10368269 -3.44734385
O 2.61700609 -7.08315968 0.12525460
O 8.48176051 -1.62159078 2.58753496
Pu 1.45313092 -2.00291173 -10.58186884
O -4.24448077 6.78932278 -3.89720866
O -8.19161668 -3.31507528 4.86846899
Pu -1.48783502 3.36729034 8.71357583
O -4.21556675 -7.59695152 -0.13308079
O -2.08135421 -1.71731102 -8.06058474
Pu -2.47710465 4.82764731 -1.09198164
O -1.27680775 8.36735441 2.72086064
O 4.14363029 3.54477691 -4.12501457
Pu -3.45343634 1.91892729 6.02418689
O -4.09610657 -3.61636745 -1.64295722
O -0.67443422 -0.29939089 -3.45652226
Pu -1.25674181 -6.91577380 2.32490939
O -1.87256097 -4.16309805 4.43390576
O -7.33946775 -0.20397455 5.51172535
Pu -0.17623463 2.14610653 5.64465203
O 0.18013966 -3.94755812 5.19554910
O 4.87168833 -7.60218835 2.64410565
Pu 3.29889757 -1.39918835 -4.07457207
O -6.73934810 2.95488224 5.09809913
O -5.26996449 -1.30330543 -0.66728678
Pu 6.75809752 -0.03757597 6.96443833
O -3.78874598 5.74059214 1.94492822
O 4.40267249 -5.63340336 -3.41391224
Pu -7.02636037 1.29035670 3.92516651
O 0.83319307 1.40622475 4.05435501
O 5.87943105 -0.61621145 -7.49542496
Pu -8.23311905 -1.95030586 6.27657580
O -8.95872482 4.26400537 -1.52641652
O 8.45339337 -3.48986997 0.97939467
Pu 2.69383440 -5.52478217 -1.93756843
O 10.72628827 -2.69125070 2.52455784
O 6.82643662 -2.79920303 -5.28614015
Pu -1.32123287 8.06022718 -5.24283436
O 7.13076521 -2.58433282 -1.95373964
O -9.75996107 2.35107410 -3.44961938
Pu -3.86283780 6.83578755 3.77583334
O -1.57188581 7.07969852 5.81224395
O -0.45244054 -3.15716911 -9.34829595
Pu -5.58506589 -1.39423700 -5.15883316
O 3.42812999 -0.49602908 -5.83515069
O -3.47479332 -0.04954324 6.82060859
Pu -2.82743615 -9.04494627 0.22045950
O -3.92171677 6.01131491 -7.62338379
O -7.37942537 -3.12996480 -2.48545859
Pu -4.26822638 -7.87400766 -2.99494423
O 1.42011066 -4.37543127 -0.69509589
O -2.23873848 6.69371133 -0.08690069
Pu -5.62262700 3.69780513 1.82947849
O -0.27778112 -7.90819070 -2.79615607
O -5.86207764 6.62006249 4.57201745
Pu 7.84955471 -5.46695009 0.45133184
O 3.91436080 2.76014063 -6.23288473
O -3.10057591 9.34504515 7.08952737
Pu -0.44596780 1.67240250 -2.50267141
O -2.41614071 -3.10228929 2.40032049
O 3.20736308 -0.99369782 5.92242439
Pu 5.02488147 8.37992342 5.00833986
O -7.26717778 4.18040307 3.10914568
O -3.66501735 8.58689237 -0.69615763
Pu -2.74243381 4.06001467 2.88321135
O 1.62449089 -7.25045410 2.78955033
O -7.62201788 -1.30852976 0.55588419
Pu -6.95759921 1.56452588 -5.66011017
O 6.99077606 3.66820695 -4.24664106
O -5.50835423 -8.92560197 1.43961918
Pu -7.20936930 -4.78607423 1.28220025
O -2.54469216 0.94571918 -8.75964063
O 7.13721727 -5.46734494 -3.87103894
Pu -1.27884034 -9.65768179 -3.03894720
O 2.60139134 5.10653674 5.85759419
O -0.08965686 0.62138090 -7.53860967
Pu 0.67014367 -8.07719441 -0.87621667
O 3.45424517 -3.55461525 -1.91073595
O 6.03512277 -5.12752617 4.91869527
Pu 0.67450920 5.30879751 -2.52168540
O 8.68397971 -5.72518591 2.26463121
O -0.39022371 1.07865999 0.55014876
Pu -2.74928963 10.19898666 5.23867027
O -1.73487487 -7.98895849 -7.16808252
O -2.53228494 -2.50351959 -3.17100793
Pu 5.95502740 7.09455508 -0.50262495
O 3.29694932 0.72442745 -7.88366269
O -3.01652731 8.33241389 -6.32663903
Pu -0.63764233 -0.98569539 0.25375519
O -2.81568529 -8.40166237 2.31029781
O -0.32832850 -7.15851476 4.34575450
Pu 5.71037780 4.29433384 -5.75044763
O -0.87392402 3.58013501 -1.41641676
O -4.90814534 4.72477517 3.44459505
Pu -0.68638123 -4.49569171 -0.57022577
O 6.53307871 2.41714943 -6.24611141
O -1.76991208 6.08881675 3.46086596
Pu 4.78311507 -1.28921177 4.50102653
O -3.88455615 -2.73972638 -5.20110489
O -6.98158847 3.37377618 0.34726420
Pu -4.59492420 6.81212845 -5.84252494
O 3.46955636 3.22813589 6.86311466
O 0.89224318 7.21539582 5.91769731
Pu -7.05125971 -4.93983189 4.60174785
O 4.37256511 -8.08783990 -3.78070491
O -7.45699757 -1.28762314 -3.89441305
Pu 1.37768762 -1.51745963 7.20970091
O -5.11387583 4.87565447 -5.76883154
O 1.50265963 -5.80605829 -3.63486566
Pu -1.52360435 4.20011808 -4.78753183
O -8.27458360 -6.92657143 -0.69433267
O 2.65263878 4.87551316 -2.77770170
Pu -6.38535009 2.21306408 -1.43898241
O 7.78923326 7.01373846 -1.12974726
O -2.79605516 -4.66806099 6.64406024
Pu -4.66287639 -7.57445576 2.74705382
O -1.20486877 -8.93112421 -0.96197188
O -0.30700409 -3.26757239 7.59283657
Pu 10.03251573 -1.21512098 1.17258175
O 5.48619672 0.44137263 5.38594621
O -3.39088330 -9.43984579 -1.85303152
Pu 2.81694347 -4.47025480 -7.07284030
O -5.12606875 2.77136528 -3.12372031
O 5.29285710 -8.50152546 -1.46095371
Pu -4.52972081 -4.20264432 -3.50260710
O 1.69385291 -3.64428672 -8.55583962
O 8.39702321 -3.65290600 4.81799149
Pu 4.53228161 4.19467938 5.16621460
O 0.51337225 3.98686413 -4.09459910
O 3.18567549 -5.84232407 4.61732802
Pu -3.69867480 -4.40447337 3.50136682
O 7.00083749 2.22282966 0.77570917
O 3.25669061 -9.32392117 0.16669170
Pu -0.10766112 -2.80673115 -7.46556147
O -0.68513524 9.99839508 5.16825542
O -5.98444054 5.58740333 1.14901723
Pu 7.47207056 1.10941645 -0.87959502
O -0.22596933 -4.20126707 9.92313660
O 8.29062319 -0.60013588 -0.17143604
Pu 1.14581825 -4.91429809 8.34880598
O -3.39242178 -5.51805741 -7.53141436
O -3.61511550 -2.30719109 5.59672127
Pu -0.96524752 0.85633532 3.08188974
O -1.88700483 2.13234306 -4.13403242
O 2.34453905 -3.26368376 7.48923036
Pu 9.17502644 -3.91054034 2.95470867
O -0.92321289 4.15840115 4.10525713
O 4.79152018 6.39019368 5.57975854
Pu -3.26636656 -3.59962636 -6.79515928
O 1.86005575 4.62945353 -6.54283010
O 1.23665710 -9.71384609 -2.17542578
Pu -1.10161518 -0.32505717 -9.55749187
O -1.26911075 -6.43877295 -5.59091036
O 8.51908662 2.88819185 -0.56220612
