420
ML-kMC step 3000
Pu 1.42724690 5.23793109 4.01913595
O 1.75735020 1.49098516 6.56394258
O 4.67856180 -2.87623694 -4.00236387
Pu 2.35920435 3.27006060 -4.84321727
O -5.26524899 7.85395992 2.38215355
O 9.20947276 -2.33980796 -3.51181511
Pu -7.48321014 5.68784044 -0.61014811
O 2.92536333 -11.50776361 -1.90792784
O -6.46057256 -3.48178282 -4.74836387
Pu -3.68179639 3.52842801 -7.10298508
O 1.15891256 -6.44809775 6.16268511
O 4.44066601 6.47873604 8.17541139
Pu 5.01695305 -5.65334028 3.39996595
O 2.28958378 2.72745730 0.56411375
O 5.29286368 5.66909576 -4.33389596
Pu -1.63794343 5.10522881 6.02178105
O -5.50364601 0.92792917 -5.11506015
O -4.52371445 1.24604633 -1.34046099
Pu -5.20892647 4.87646880 -3.38004068
O 7.17751686 2.31012493 -2.54733241
O 3.56554581 -0.44854591 3.03249038
Pu 1.73336989 3.89443336 7.63655151
O -4.45863443 1.62423866 -7.39924570
O -6.16651471 7.26268134 -0.84176454
Pu 0.19177281 -5.22747059 -10.09289854
O 2.11043155 7.35281637 -2.37134408
O -5.02874840 3.25903245 7.26178048
Pu 5.54020191 -3.58261780 -1.13053412
O -1.69498831 2.36800937 1.92176239
O -0.19039965 3.89304810 7.14489820
Pu -0.70528103 6.86534769 1.50878702
O 3.94754986 -5.50071054 1.76211603
O 0.86508240 3.93642506 5.35633386
Pu -3.57139552 -0.32023638 -7.77142148
O 1.43215443 -6.01580830 -6.21812127
O 0.58115010 8.27065886 -4.51749026
Pu 0.13799071 3.27718520 0.83186685
O -1.84881895 4.09158647 -8.36205149
O 4.61518096 -3.23578488 4.08967521
Pu 0.05067872 3.64315202 -8.24807821
O -7.13815481 4.82977412 6.86779403
O 0.79632708 -1.29262112 -8.87864670
Pu -3.36250717 -7.11365835 -6.09049934
O -4.04818865 -5.42795329 -5.38131009
O -5.46448368 -5.78178847 3.72475917
Pu -0.92726613 -5.99943212 5.78942010
O 5.71692772 2.55686637 6.62519021
O 0.95479808 -10.33402088 0.43016750
Pu -3.12700349 7.66564419 7.37830809
O -2.02295840 1.67826916 4.80909713
O -8.61601410 5.43325641 0.97898531
Pu 4.81955932 0.89430254 -6.71994700
O 2.85044836 -5.59536155 7.86783121
O 0.42385779 6.87150691 3.41798471
Pu 3.94240901 1.06416653 6.90321599
O -3.30141286 -5.93810404 -2.85139638
O -8.79607332 -4.22439534 0.41320450
Pu 6.76855686 -2.53243840 1.96544641
O 1.09476913 3.64467531 2.68483558
O -0.83228846 6.89481916 -2.20665866
Pu 0.42741382 8.69169183 -2.58365632
O 4.98224402 8.30278887 0.97000091
O -5.86903509 -6.59967667 1.25488773
Pu -1.77626567 6.35058277 -8.06807677
O 4.30094314 6.35656956 0.21819320
O 4.07997473 2.05785989 -9.46370307
Pu 1.90201365 -7.31892796 4.47343597
O -4.15261209 2.43513871 2.36093431
O 1.46006573 9.48964360 -1.11399564
Pu 2.64354793 -4.61414138 6.05499008
O 2.86655126 -1.05593783 -9.85192437
O 0.59961560 -5.97374842 -8.26293061
Pu -8.57723750 4.61898424 5.00851693
O 9.42412716 0.62463071 1.89428177
O 4.41850860 -2.84697310 -7.38669089
Pu -0.93211746 -6.34028391 -3.60357080
O -8.59264217 6.61050560 4.35973842
O -7.01391625 5.42523633 -4.09071130
Pu 4.97663203 5.81457185 2.22266888
O 3.90191233 4.36519817 1.50004037
O -8.03349133 3.21976027 -5.39803374
Pu 10.90605847 2.82098690 -1.24557281
O 6.43346384 4.72042911 6.06187551
O -1.82336493 6.00562828 7.77950705
Pu 3.26181963 1.46121749 -0.81428954
O -0.28654399 -1.29115302 -5.92822820
O -5.59549670 -3.46714835 4.95115080
Pu -0.96441488 0.92450341 -5.58408594
O 3.37051934 5.22917200 3.83460719
O 2.98492513 7.12747228 -4.69954841
Pu -9.67395691 1.36152060 6.74382672
O -9.00186430 3.25586540 6.51478288
O 9.83927592 3.17194567 -3.19916917
Pu -9.01901677 3.47405977 1.27615067
O 5.02930431 5.66639181 -1.66534042
O -3.29672494 3.98746768 5.11660353
Pu -9.11107688 0.08716350 0.75267190
O -9.52326750 3.96607081 3.16581651
O 1.65180726 -8.49606353 -5.61018933
Pu -8.32258444 -5.12814699 -1.49213732
O -2.45825540 -0.38840228 -0.06589526
O 1.92525730 4.53154233 -8.99728631
Pu -1.73925512 -2.77128732 6.23901353
O 4.48752238 1.55923525 1.64279940
O -3.82459572 6.27623432 5.97469612
Pu -4.52926156 7.08571220 0.51514685
O -3.04684523 0.34693756 -5.82964027
O 6.14356077 4.72246159 3.52121721
Pu -0.42841342 8.15543070 4.53338203
O 0.61058509 3.66410413 9.18341591
O 7.60584030 2.12053117 2.90979912
Pu -5.58764130 -1.02940140 5.34474768
O 0.57067617 0.44090054 -10.50190957
O 4.60237555 3.10663795 -1.38592985
Pu 6.60617193 -1.20875933 -3.67883979
O 6.81573378 -5.09747545 -1.44184235
O -2.26271175 6.11784075 -6.06013042
Pu 1.95518263 -8.95691518 1.71220446
O 6.50692943 5.09223636 1.03924216
O 10.55238256 0.93881414 -2.06911662
Pu 9.13166421 3.08127942 1.46073774
O 6.64117686 -4.49660796 2.36985421
O -1.00490902 1.36901863 7.33034492
Pu -3.43911923 -1.21799293 -1.80464373
O -0.34797207 7.52573807 -6.93814280
O -0.39872813 -1.46586219 -11.59895549
Pu 1.36450798 6.75699592 -5.88542876
O -8.59066226 -5.09963245 -3.59942604
O -0.73458812 -11.65807886 -1.97915756
Pu 2.07705888 -2.42918396 -1.09383638
O -7.60300602 0.63199365 -0.76070371
O -4.30604618 -3.77942993 8.85093415
Pu 3.57846004 -9.47070504 -2.18949414
O 6.55418570 -4.27437010 -6.91731074
O -0.65392449 -4.56657374 -2.54400299
Pu 3.14804434 8.24421848 -0.07077690
O 7.99185496 0.14864467 -2.94397911
O 4.08508139 -5.69451092 -6.05624934
Pu 2.94804206 -7.10860965 -4.90650514
O -3.96987047 4.09259037 -5.01983930
O -9.85773830 -0.45617131 -1.16316376
Pu -3.16131059 7.48481044 -2.40473554
O -0.13251804 -5.11413942 1.90399564
O 4.86951054 4.77470402 -7.40242075
Pu 4.69865360 -7.49759277 0.42850394
O 0.75438328 1.80187219 -4.48625697
O -3.37330190 3.61418454 0.26007933
Pu -3.90765123 1.40028346 -3.99527275
O 1.52924146 -4.10552836 -11.27031384
O -5.57976490 -7.30478222 -1.56811218
Pu 6.77458836 -3.63858805 5.85797501
O -4.64554504 -2.08516279 -7.30498561
O 6.37741110 -1.83639032 6.32047493
Pu 6.43689743 6.44772135 7.28183817
O -1.00889405 4.90249542 0.90995680
O -8.25431214 1.43758471 8.15432396
Pu 7.69246215 3.22551041 6.90842189
O -2.29959660 -8.28192414 -3.98176582
O -2.26274960 -2.09416251 8.31814250
Pu 5.75820502 4.07550744 -2.67894870
O -10.06528091 1.85995300 0.86489188
O -1.19681567 -3.68687870 -6.36014252
Pu -0.46929135 -3.27719369 2.99075486
O 6.59466558 -1.34452878 3.62364232
O -4.15078249 5.75330846 -1.49113995
Pu 2.68789360 -2.23172629 2.38543556
O 3.56250787 8.84858075 6.18604169
O 4.85409312 -0.21833291 -3.53840413
Pu 2.93490605 2.20005465 3.09729960
O 1.78710668 -2.87094374 -6.30671193
O 8.09744567 1.65215062 8.12866671
Pu 1.00404690 -11.61487119 -1.19166848
O -7.64165738 1.93670636 2.16159516
O -0.03814341 -8.32284920 1.11073054
Pu -6.66459998 -8.15159877 -0.01537157
O -7.12689257 -0.35538568 -6.50743667
O 2.83985126 -3.56184617 1.01162402
Pu 6.41022683 -2.25362978 -7.24070213
O -4.71404909 -7.97975043 -4.79367091
O 0.01535268 -1.91013762 -1.20747416
Pu 5.89094456 -6.85579082 -2.60422288
O 6.62885214 -7.00698610 -0.09181318
O -7.99832705 -5.40368768 3.06628189
Pu 3.20261534 4.82751945 -0.40566295
O -9.93863066 -1.75394476 -3.91130031
O -5.63493959 -3.60757185 1.31581405
Pu 0.11559701 -7.48134182 -6.86958856
O 5.36147079 -2.17920392 0.34339065
O -5.50881159 1.17448854 5.24925803
Pu -4.95657923 -3.66872806 6.99851917
O -2.26443060 -5.97703298 -0.25826597
O 1.49423691 2.36987636 -8.47313911
Pu 5.93710013 3.08659410 2.04325661
O -6.41284168 -1.93302307 7.03313732
O 4.78178770 7.39663037 3.40606408
Pu -3.35429966 1.55315495 0.37943603
O 1.14843231 4.91917504 -0.60979194
O -0.22557380 -3.08246992 0.87186623
Pu 8.16656254 0.35723136 3.66580793
O 4.62671940 2.87386872 3.80919706
O -0.46374826 6.37531153 -4.70507100
Pu -4.34328760 -5.61551578 -0.32984830
O 1.49706642 -3.61190416 3.44709187
O -6.63933303 4.29401880 -2.01772179
Pu -1.66630900 -0.17094948 8.38183481
O -6.30436949 -0.78790996 3.25364428
O 8.48150427 0.19372806 5.65626972
Pu 1.91937702 -0.92221447 -7.13677776
O 6.78008821 0.30618072 -4.98806432
O 2.43630637 -9.17359533 3.76570909
Pu 8.03099220 2.01306950 -4.43454359
O -3.45927296 -5.96703201 1.85262117
O -0.25373030 5.62056630 -8.96623993
Pu 2.91198307 7.02591974 6.91818996
O 5.29447170 -0.03326082 8.03943028
O -0.91466875 -1.27666073 2.63600684
Pu 8.58065933 -4.20391244 -2.92133737
O -2.66838386 5.28150833 -3.05648197
O -2.48224316 1.00857579 -2.37418300
Pu -5.25763301 4.77707527 5.61945182
O -6.20523316 -5.38731166 6.65489113
O 1.58979010 7.05618045 0.83292763
Pu 5.55883193 -4.42556926 -5.03022954
O -0.17835177 -1.34607362 5.88227810
O 0.44866661 -0.41550812 8.67130647
Pu 4.19546841 6.96997229 -3.21410021
O -2.64949724 3.49172327 7.22967567
O -6.46882863 -5.15347399 -0.66463938
Pu 2.31737651 0.92029229 -9.75901581
O 1.37020414 -1.12772335 1.47003284
O -7.30103701 1.00267796 -3.04100421
Pu -0.53856040 -2.60108373 -3.87195207
O 6.52363955 8.09670458 6.17399795
O 9.00094509 4.61678831 2.74129724
Pu 8.00693996 4.78694379 4.39036226
O 10.74166436 -1.79004838 -0.90878713
O -2.06033375 1.40696390 9.59896873
Pu 1.91842346 -5.45048224 1.27946917
O 0.34062168 -6.19323759 -0.38880470
O -10.06471233 -0.64096413 6.92739327
Pu -7.02672125 2.93993570 7.44986785
O 8.42377808 5.24315784 6.57621255
O 1.37322248 1.66698539 -2.00349568
Pu 9.87325952 -0.86254406 -2.39677418
O 1.58115600 -2.26707062 -3.32580983
O -4.63564667 0.33493549 1.38235834
Pu -7.08810375 -1.22814694 -1.94073162
O -4.88003779 -1.12716636 -3.50991256
O -1.72404196 3.25919404 -6.27769123
Pu -5.66851049 -1.51517286 1.28896520
O 4.68979005 -5.87655614 -1.21808751
O 8.03317538 2.72616896 4.98903933
Pu -9.53270353 0.31048200 -3.04282443
O 9.03952413 -4.99199379 -1.24973793
O 3.21946801 -0.68902106 -1.42492147
Pu -6.97158713 6.69850397 2.93270047
O -1.67781827 8.75882710 -3.40068069
O 2.29522007 -7.76312683 -2.04212785
Pu -2.27699081 -3.91993225 9.18773665
O -3.51555211 8.54611277 4.91772517
O 4.67085401 8.31755835 -1.50091665
Pu -8.36366631 -3.16037963 -4.17388999
O 11.15868085 3.23023913 0.70650046
O -9.16788210 1.38964713 4.85682418
Pu 3.35896531 3.55710759 -8.08407993
O -0.95268098 -5.88801610 7.91208080
O -3.04923932 -6.87980084 3.96164197
Pu -8.53015681 4.16967786 -3.54503336
O 2.69940296 -7.00363890 0.23988516
O 8.41469450 -1.53835973 2.63555658
Pu 1.37304147 -2.08061745 -10.65065727
O -4.56741946 6.64216262 -4.01781350
O -8.18757739 -3.49823717 5.29840394
Pu -1.38467559 3.15770796 8.78228805
O -4.29600248 -8.04548312 0.17016904
O -2.00796909 -1.85116130 -8.32299451
Pu -2.34232437 4.89422457 -0.97761060
O -1.48143273 8.82234766 2.78379004
O 4.48247861 3.55985179 -4.34379146
Pu -3.80807434 2.00402821 6.16710222
O -4.18625378 -3.75742865 -1.58854572
O -0.85564450 -0.45620205 -3.47472198
Pu -1.26292270 -6.87416651 2.18899067
O -1.73304165 -4.35569587 4.60800827
O -7.81308711 -0.22249031 5.42358524
Pu -0.17353190 2.13312250 5.64031056
O 0.57447037 -4.26449183 5.65695126
O 4.97718799 -7.53560144 2.48563557
Pu 3.30217113 -1.36564550 -4.09653844
O -6.87532003 3.02199731 5.25282800
O -5.40903016 -1.30202899 -1.04927429
Pu 7.04952846 0.14294001 7.24003551
O -4.04313152 5.75080807 1.98972410
O 4.44072634 -5.80448489 -3.70212543
Pu -7.34358454 1.19767315 4.06038426
O 0.95436689 1.40736190 3.94385824
O 6.01197199 -0.43737425 -7.63152050
Pu -8.59520392 -1.87930370 6.29231631
O -9.04914463 4.93078452 -1.52489235
O 8.04764839 -3.47674498 0.78310236
Pu 2.64758139 -5.71430606 -1.94541634
O 10.59600875 -2.83535340 2.15643742
O 6.78472857 -2.54422912 -5.32938608
Pu -1.47233094 8.17724104 -5.31559496
O 7.07750152 -2.67023071 -2.43019872
O -9.36533050 2.23685295 -3.44744975
Pu -3.81483311 6.79296984 3.88385748
O -1.57822343 7.24872161 5.87588086
O -0.47966354 -3.24156294 -9.81022490
Pu -5.64231480 -1.40683210 -5.44880595
O 3.41375929 -0.40992451 -5.89453553
O -3.49344205 0.34642427 7.26860826
Pu -2.88730079 -9.55044777 0.22283586
O -3.81161708 5.57780310 -7.89165647
O -7.45577930 -3.28600551 -2.19330918
Pu -4.23587132 -7.85537233 -2.83018410
O 1.53444770 -4.37159963 -0.81893546
O -2.24088340 6.69111770 -0.02337066
Pu -5.88987176 3.56007532 2.09386331
O -0.23497987 -7.96906681 -2.84104240
O -5.90136776 6.57521141 4.76267753
Pu 7.84919755 -5.60049575 0.41601494
O 3.79618630 2.54533023 -6.18365384
O -3.13717709 9.76530151 7.17145907
Pu -0.49014544 1.72356612 -2.46744594
O -2.58472741 -3.43753482 2.65871886
O 3.15893443 -1.17282327 6.01615227
Pu 5.01596526 8.50293831 4.94880212
O -7.15419268 4.58635581 3.48065766
O -3.64192437 8.51661346 -0.76755607
Pu -2.83003094 4.06803943 2.94005433
O 1.36457832 -6.96714901 2.45077979
O -7.66957103 -1.24461343 0.58316960
Pu -7.25852771 1.50695648 -5.87132989
O 7.20845547 3.91520595 -4.40081422
O -5.88083964 -9.17578884 1.67316836
Pu -7.21089882 -4.83205388 1.30681190
O -2.37128250 0.78245852 -8.80853022
O 6.97549883 -5.50741831 -3.82875009
Pu -1.16272486 -9.87297390 -3.04886963
O 2.72438818 5.08097304 6.31409857
O 0.26711744 0.61917171 -7.20443342
Pu 0.46730586 -8.25158638 -0.92230623
O 3.77587651 -3.58744123 -1.91221506
O 6.08723968 -5.20099416 5.01907168
Pu 0.71330932 5.55898416 -2.59742030
O 9.13032584 -5.77555505 2.23748735
O -0.25804736 1.13205993 0.63317969
Pu -2.68886860 10.32523579 5.25673893
O -1.65534843 -8.28615644 -6.96693720
O -2.57881045 -2.64357280 -3.07512614
Pu 6.27837968 7.17398248 -0.49684579
O 3.22841889 0.47014193 -7.82588186
O -3.15004215 8.16181148 -6.60704697
Pu -0.63386086 -0.92213533 0.48804619
O -2.66266211 -8.55911548 2.04793282
O -0.30405086 -7.08045956 4.15816700
Pu 5.87190123 4.25025280 -5.83881301
O -0.90596929 3.57220721 -1.29427335
O -4.84304831 4.49734532 3.74419561
Pu -0.74106508 -4.48330262 -0.48434588
O 6.61855104 2.31301364 -6.24653056
O -1.99386002 6.25684292 3.22935943
Pu 4.81575952 -1.29019432 4.49846900
O -4.12438281 -2.93734091 -5.13891869
O -7.10887495 3.32760487 0.24800917
Pu -4.69712474 6.75031266 -6.18635668
O 3.48160600 3.07690661 7.06183636
O 1.12912224 6.92376399 5.77121689
Pu -7.09990045 -5.11446851 4.85294908
O 4.15705262 -8.15162817 -3.62341738
O -7.90408784 -1.22460665 -3.87892934
Pu 1.21676116 -1.56872440 7.20901734
O -5.60706641 4.83722314 -6.53717879
O 1.33977827 -5.93590505 -3.74527137
Pu -1.84646448 4.55027447 -4.86871262
O -8.27444472 -7.09640510 -0.52050368
O 2.81263154 5.07208407 -2.64350831
Pu -6.31526912 2.23872486 -1.38248920
O 7.88266545 8.03793480 -1.07715117
O -2.88724891 -4.46707541 6.67365404
Pu -4.61323366 -7.68557317 2.58014108
O -1.40579621 -9.27760913 -0.99898700
O -0.50843310 -3.43103146 7.73521833
Pu 9.96372950 -1.27237959 1.06114373
O 5.52610133 0.35655348 5.50749630
O -3.69763447 -9.66528750 -1.69955503
Pu 2.81728739 -4.54722407 -7.20013491
O -5.00186847 2.81005787 -3.08381160
O 5.25654683 -8.56069337 -1.50540462
Pu -4.74503125 -4.09552233 -3.61271027
O 1.37785114 -3.85828381 -8.59063029
O 8.31501066 -3.69326118 4.62636441
Pu 4.54011888 4.21689570 5.43880775
O 0.59330117 4.41662811 -4.33713056
O 3.27832536 -5.83018653 4.71296919
Pu -3.56922434 -4.95101678 3.68735747
O 6.98411566 2.51425391 0.47601689
O 3.25615031 -9.21950113 0.17979005
Pu -0.06289522 -2.83912383 -7.72029001
O -0.76106365 9.88633547 5.55743414
O -6.19783293 5.49463736 1.19008838
Pu 7.54343254 1.16954772 -1.00119114
O -0.47201150 -4.35491604 9.97083810
O 8.38851519 -0.60676087 -0.46882965
Pu 0.94702927 -5.09513403 8.61389581
O -3.31113276 -5.57094956 -7.66731261
O -3.70302802 -2.07367879 5.63924873
Pu -0.96224099 0.83684712 3.07164247
O -1.96868065 2.52234838 -4.14729998
O 2.28440119 -3.30525577 7.65195066
Pu 9.46304506 -4.06299242 3.12081715
O -1.06568333 4.19459484 4.10751452
O 4.79030075 6.38678817 5.85545599
Pu -3.19365146 -3.88364371 -6.70889674
O 1.74400335 4.69385617 -6.42995589
O 0.92486389 -9.85453054 -2.17970552
Pu -1.04740899 -0.43557429 -9.85207896
O -1.44754663 -6.50095032 -5.57313069
O 9.11513517 2.42913725 -0.43327740
