420
ML-kMC step 1000
Pu 1.42724690 5.23793109 4.01913595
O 1.89136751 1.53491967 6.56418849
O 4.68283668 -2.85958087 -3.99270553
Pu 2.34959597 3.24871294 -4.93755978
O -5.17870437 7.91777700 2.37960575
O 9.15718329 -2.41539735 -3.58049248
Pu -7.41813752 5.53960113 -0.44566972
O 3.04518749 -11.43284063 -2.00494939
O -6.55702942 -3.06625490 -4.70482972
Pu -3.75360224 3.54761402 -7.17529220
O 1.25214672 -6.66958610 6.22839072
O 4.63364102 6.55250009 8.49800261
Pu 4.96221310 -5.53881915 3.50958803
O 2.32495909 2.78618672 0.26453260
O 5.54308753 5.75388780 -4.38889245
Pu -1.54557219 5.05446723 6.03347762
O -5.50364601 0.92792917 -5.11506015
O -4.52371445 1.24604633 -1.34046099
Pu -5.26608385 4.91917561 -3.38574802
O 7.20717735 2.23356021 -2.52503107
O 3.61650594 -0.56008031 3.07913115
Pu 1.77556845 3.83808521 7.73890557
O -4.31547260 1.54952353 -7.48530047
O -6.03814956 7.06776987 -0.85443093
Pu 0.23213338 -5.17031118 -10.07825828
O 2.11043155 7.35281637 -2.37134408
O -5.24554011 3.24385516 7.30093464
Pu 5.79547266 -3.46482774 -1.07819434
O -1.33153678 2.65853578 2.15838592
O -0.34465720 3.76793376 7.21543574
Pu -0.59123867 6.87359322 1.48060698
O 3.96466482 -5.55537922 1.80990448
O 0.89628351 3.96612150 5.49854502
Pu -3.41815761 -0.42228687 -7.80576681
O 1.52273644 -6.00683272 -6.17455972
O 0.67068462 8.56483692 -4.59864428
Pu 0.30742029 3.27907356 0.69862993
O -1.97882163 4.09689039 -8.32210096
O 4.71732532 -3.32252512 4.10522241
Pu 0.01229581 3.72531882 -8.60467818
O -7.13530356 5.31347124 6.87667183
O 0.87657100 -1.30515060 -8.98806515
Pu -3.41359884 -7.12180715 -6.12165728
O -4.25976287 -5.23442117 -5.32489799
O -5.44522062 -5.33282288 4.10457577
Pu -0.85470499 -5.99324798 5.80991991
O 5.72315665 2.45537724 6.51893472
O 0.85662048 -10.58886083 0.60222628
Pu -2.94830453 7.72105803 7.32714299
O -1.96151121 1.71484899 4.81669929
O -8.96980150 5.76548056 0.78741464
Pu 4.97425773 0.95297067 -7.03492667
O 2.72403710 -5.48380629 8.07862834
O 0.40036280 6.80747308 3.42490855
Pu 3.95251707 1.05458912 6.96213224
O -3.59788683 -5.98721434 -3.00768848
O -8.84644744 -4.26197797 0.22185540
Pu 6.90024721 -2.45056661 2.07796560
O 1.55866914 3.66482406 2.60327273
O -0.72656501 6.97829141 -2.22090617
Pu 0.40570311 8.80085967 -2.53200895
O 4.84478916 8.48979932 0.87857304
O -6.01595488 -6.56602342 1.10129270
Pu -1.72692568 6.41730750 -8.10306071
O 4.30094314 6.35656956 0.21819320
O 4.26432248 2.13566903 -9.51073755
Pu 1.92573636 -7.48023085 4.54242592
O -4.29346023 2.51218344 2.56450313
O 1.44650498 9.26417881 -0.93789818
Pu 2.48951793 -4.62819677 6.15206139
O 2.77070405 -1.12576505 -10.10736890
O 0.30530862 -6.53898466 -8.61502992
Pu -8.64828797 4.60316452 4.98232172
O 9.41052621 0.77263424 1.81145157
O 4.30409639 -2.81491122 -7.58378205
Pu -0.93211746 -6.34028391 -3.60357080
O -8.50231294 6.56628767 4.23093504
O -7.06504063 5.33464449 -4.06727115
Pu 4.97663203 5.81457185 2.22266888
O 3.99419787 4.11081350 1.58252871
O -8.03552699 3.25528298 -5.34370759
Pu 10.93948842 2.86079939 -1.25649517
O 6.47794419 4.81130607 6.16141645
O -1.90732514 5.95996303 8.09286271
Pu 3.31224777 1.40930522 -0.81237284
O -0.39942028 -1.47158260 -5.94757084
O -5.75314005 -3.26409005 5.25399758
Pu -1.08285244 0.96987515 -5.57957654
O 3.56218048 5.27089920 4.05718670
O 3.08415512 7.36385315 -4.85512217
Pu -9.57972604 1.19851403 6.68478268
O -9.05452620 3.36575156 6.80016196
O 11.14093338 3.36750708 -3.12201857
Pu -9.16278272 3.46811104 1.24803932
O 5.36642605 5.66900133 -1.74073205
O -3.26596957 4.08839483 5.39431127
Pu -9.05325310 0.01959291 0.75539952
O -9.47665500 4.01093187 3.17458724
O 1.69807734 -8.54804644 -5.74955055
Pu -8.27722331 -5.12342095 -1.52557971
O -2.39994588 -0.37572933 -0.24165815
O 1.93894855 4.71537699 -9.30367489
Pu -1.85419437 -2.71238544 6.32838485
O 4.48752238 1.55923525 1.64279940
O -3.86307902 6.36217169 6.03060170
Pu -4.52926156 7.08571220 0.51514685
O -2.96840662 0.14327843 -5.66397651
O 6.21600667 4.60481468 3.40510915
Pu -0.43033862 8.20415125 4.52581442
O 0.57118953 3.74479420 9.33766024
O 7.66163046 2.12171496 2.78922595
Pu -5.59419466 -1.02841531 5.33307595
O 0.68570238 0.67961241 -10.80457132
O 4.56431217 3.31976156 -1.19028008
Pu 6.71356695 -1.08589333 -3.66816863
O 6.78958264 -5.07974111 -1.30066466
O -2.31410300 6.10754121 -5.96411681
Pu 1.84861035 -9.24183446 1.71108293
O 6.53699530 5.26857551 0.96406960
O 10.26660504 1.07811137 -2.21904396
Pu 9.26218912 3.04843604 1.58257526
O 6.69650785 -4.51611855 2.47518927
O -1.06553260 1.36180621 7.40813965
Pu -3.43219742 -1.14609686 -2.14812620
O -0.23090129 7.66798539 -6.88899804
O -0.54307337 -1.56958308 -11.69775149
Pu 1.50511560 7.01991062 -5.96154357
O -8.60343377 -5.20640175 -3.49888782
O -0.65281454 -11.78422301 -2.24042429
Pu 2.29989581 -2.63204242 -1.32876128
O -7.69237582 0.70970312 -1.01086660
O -4.27958636 -3.83180766 9.11764073
Pu 3.57846004 -9.47070504 -2.18949414
O 6.56286125 -4.20223014 -6.75149659
O -0.65525501 -4.74940458 -2.47645846
Pu 3.07077510 8.44423610 -0.08496325
O 8.17883817 0.08943310 -2.92097146
O 4.04558571 -5.84476023 -6.41253576
Pu 2.96435511 -7.04588706 -4.95633580
O -4.17209956 4.10086475 -5.17562591
O -9.97142663 -0.55641481 -0.88383403
Pu -3.18739560 7.50753434 -2.38574159
O -0.19667112 -5.24553065 1.83453546
O 4.82323846 4.81645500 -7.69833617
Pu 4.72251181 -7.42900965 0.23943620
O 0.68867919 1.78084421 -4.49124121
O -3.19817473 3.65217110 0.25877668
Pu -3.90765123 1.40028346 -3.99527275
O 1.72475931 -4.26056152 -11.10812387
O -5.44304431 -7.15891834 -1.45567874
Pu 6.83751869 -3.65051999 5.80646182
O -4.45728140 -2.00659891 -7.30142286
O 6.27342029 -1.86100280 6.22320645
Pu 6.58031982 6.57979970 7.22236214
O -0.96424609 4.89835522 0.91082478
O -8.17724435 1.52187917 8.09512515
Pu 7.80809863 3.26441231 7.03720816
O -2.43356547 -8.11984525 -3.76450879
O -2.31960746 -2.05493028 8.34873395
Pu 5.99364293 4.06756491 -2.65379135
O -10.08998234 1.80847653 0.96274833
O -1.20335373 -3.74987442 -6.40206807
Pu -0.61709085 -2.99064657 2.98770495
O 6.73793343 -1.19101923 3.66166286
O -4.15282309 5.75264573 -1.48571570
Pu 2.55795222 -2.21505802 2.37066277
O 3.50358046 8.75056205 5.89382646
O 4.85684553 -0.16952178 -3.34351778
Pu 2.94005329 2.17624857 3.07920168
O 2.22183874 -2.84665259 -6.48337249
O 8.02399633 1.66850852 8.06900735
Pu 1.13719672 -11.72876088 -1.18395872
O -7.42395523 1.90516474 2.22657487
O -0.03814341 -8.32284920 1.11073054
Pu -6.57679373 -8.16587470 -0.04898484
O -7.03740587 -0.33697893 -6.63482740
O 2.83599886 -3.67413713 1.03455758
Pu 6.56208135 -2.27704717 -7.28642387
O -4.80473257 -8.10775038 -4.85387016
O 0.21908345 -2.30007517 -1.18987472
Pu 5.93642716 -6.76113060 -2.67438063
O 6.60874520 -7.15508398 -0.03469630
O -8.04744193 -4.92422302 3.05832906
Pu 3.20261534 4.82751945 -0.40566295
O -9.99082924 -1.93913650 -3.82973391
O -5.60426935 -3.47013377 1.34233944
Pu 0.18245158 -7.55191289 -6.82746357
O 5.66749104 -2.11626712 0.41737925
O -5.51968230 0.98823932 5.26209316
Pu -5.08280650 -3.67954414 7.13824340
O -2.21551074 -6.03609037 0.02454682
O 1.53737525 2.30541579 -8.57926542
Pu 6.01578694 3.08060560 1.96194528
O -6.40627995 -1.80578854 7.01790622
O 4.78178770 7.39663037 3.40606408
Pu -3.40633959 1.52468662 0.39321955
O 1.01952679 4.97218530 -0.58898510
O -0.11859845 -3.14366753 0.91431638
Pu 8.36935422 0.35045837 3.63774918
O 4.62671940 2.87386872 3.80919706
O -0.48461551 6.35221655 -4.61694874
Pu -4.34248485 -5.61841835 -0.32300429
O 1.34956783 -3.65734955 3.37504033
O -6.50569227 4.27260574 -1.77506450
Pu -1.77601204 -0.13863574 8.57457455
O -6.06707605 -1.15892138 3.32135322
O 8.87218483 0.07012086 5.49911505
Pu 1.99107962 -0.97604814 -7.15183927
O 6.77169005 0.48521710 -5.09912868
O 2.44790334 -9.18252366 3.61887488
Pu 8.06831425 2.03137734 -4.46903432
O -3.83604861 -5.89323132 1.92789222
O -0.26568737 5.66060698 -9.11777298
Pu 2.85846241 7.10029715 6.89553265
O 5.43840254 -0.19199077 8.19549877
O -1.19220362 -1.00334923 2.46789636
Pu 8.42958002 -4.14818041 -2.70543324
O -2.54109101 5.33625457 -3.07936875
O -2.44489378 1.10846723 -2.18335435
Pu -5.38044579 4.90156877 5.78461000
O -6.06575660 -5.46847980 6.64028466
O 1.58267040 7.31005638 0.96192215
Pu 5.57602573 -4.44564105 -5.04481753
O -0.26922710 -1.33663752 5.91866672
O 0.60811777 -0.48486507 8.84639862
Pu 4.19604013 6.96252606 -3.22355711
O -2.83207752 3.26000672 7.58035877
O -6.29142568 -5.24428004 -0.69400187
Pu 2.28388864 0.92357655 -9.70386632
O 1.31603135 -1.13516375 1.40986834
O -7.34660078 0.95567255 -3.17959828
Pu -0.48954198 -2.62029755 -3.88465857
O 6.93722939 7.94142522 5.75777022
O 9.13330290 4.57351558 2.84163875
Pu 7.93393532 4.71151085 4.41371760
O 10.77022218 -1.71306394 -0.79151698
O -2.19352253 1.37571376 9.84661498
Pu 1.91842346 -5.45048224 1.27946917
O 0.31278579 -6.33508199 -0.44699869
O -9.86621398 -0.63556849 7.09558969
Pu -7.12876298 3.44263869 7.83684643
O 8.39551124 5.45665868 6.39422201
O 1.60876034 1.65342737 -1.97431349
Pu 10.07810273 -0.90662542 -2.49538243
O 1.64983659 -2.26076123 -3.42643031
O -4.83073199 0.59355062 1.28367947
Pu -7.08810375 -1.22814694 -1.94073162
O -4.87895596 -1.13939638 -3.50784072
O -1.69250054 3.17418762 -6.40656218
Pu -5.69061104 -1.48765962 1.25997671
O 4.55457586 -5.95997337 -1.30493045
O 8.20421633 2.73237017 5.13952309
Pu -9.50983187 0.31125385 -2.88417165
O 9.01623323 -5.23545597 -1.22419004
O 3.25469407 -0.66347105 -1.45644360
Pu -7.01617479 6.89803374 2.90880616
O -1.72665896 8.96397886 -3.36369615
O 2.24766000 -8.01111829 -2.08856135
Pu -2.31300479 -4.00309232 9.29356105
O -3.62866559 8.91301823 4.74529037
O 4.60163651 8.19725273 -1.49786547
Pu -8.53591545 -3.21726992 -4.12178102
O 11.22646170 2.99157772 0.79332026
O -9.42068661 1.24971052 4.65376720
Pu 3.50144687 3.67637820 -8.47003410
O -0.82326987 -5.76624416 7.80130455
O -3.32944620 -7.03672075 4.01040449
Pu -8.58712745 4.21896106 -3.59317178
O 2.69940296 -7.00363890 0.23988516
O 8.76640159 -1.52762508 2.62373348
Pu 1.39097650 -2.16586595 -10.94319520
O -4.44748107 6.93523717 -4.02512031
O -8.55709822 -3.70147394 5.51531296
Pu -1.44354203 3.02569659 8.97534662
O -4.17145071 -8.13131281 0.24764490
O -1.83125107 -1.65800642 -8.31791486
Pu -2.19362939 4.97759801 -0.99804630
O -1.58785788 8.84683175 2.94703131
O 4.27024405 3.84241491 -4.21998509
Pu -3.88943773 2.00589480 6.12502139
O -4.18625378 -3.75742865 -1.58854572
O -0.86887777 -0.44764402 -3.46815220
Pu -1.26468418 -6.86325762 2.18297032
O -1.73713915 -4.31889085 4.82698382
O -7.70237312 -0.37082652 5.27405184
Pu -0.21399293 2.13536050 5.83921361
O 0.50660049 -4.32948485 5.64900547
O 5.01363064 -7.45958672 2.43506232
Pu 3.30217113 -1.36564550 -4.09653844
O -7.13792932 3.10130357 5.32620000
O -5.37659746 -1.25051191 -1.04935192
Pu 7.08116989 -0.00548438 6.97773045
O -4.21021024 5.51144335 1.80105308
O 4.39640283 -5.78433085 -3.96408083
Pu -7.43570973 1.18515719 4.15434830
O 1.00839254 1.28801027 3.93580232
O 6.23844601 -0.45731264 -7.93506473
Pu -8.56519860 -1.93634709 6.30494172
O -8.87228565 4.71958154 -1.55996604
O 8.12455745 -3.42048714 0.73001043
Pu 2.56887366 -6.02746101 -1.82291088
O 10.70211090 -2.89794370 2.06970847
O 6.70455136 -2.33690247 -5.32219918
Pu -1.34517589 8.33695318 -5.29176486
O 7.06683232 -2.63199627 -2.50624983
O -9.45916055 2.33265383 -3.23112284
Pu -4.02166001 7.15268016 4.02136176
O -1.57822343 7.24872161 5.87588086
O -0.61823221 -3.17410131 -9.65455294
Pu -5.67306056 -1.41472166 -5.53992372
O 3.43256439 -0.41282768 -5.74398425
O -3.46878609 0.27861814 7.29987719
Pu -2.89899524 -9.58268539 0.23553433
O -3.66718205 6.03886912 -7.82329773
O -7.48843522 -3.14666815 -2.18307130
Pu -4.33146166 -7.90687931 -2.90294924
O 1.61457410 -4.54144773 -0.94192885
O -2.10459867 6.83581052 -0.00664115
Pu -6.01048572 3.65331704 2.20801388
O -0.28866539 -8.06436907 -2.79266650
O -5.89098595 6.76794273 4.67396257
Pu 7.83851237 -5.70524402 0.38279761
O 3.68087006 2.77176432 -6.46222528
O -3.06366673 9.72580827 6.93133932
Pu -0.49014544 1.72356612 -2.46744594
O -2.58339517 -3.60867955 2.79400344
O 3.22250747 -1.21441560 6.06752207
Pu 5.15338853 8.62262162 4.82984872
O -7.21147603 4.70807362 3.50178335
O -3.75242795 8.46098271 -0.76694025
Pu -2.83003094 4.06803943 2.94005433
O 1.39129413 -7.12338118 2.50152657
O -7.51771156 -1.12688559 0.61568505
Pu -7.29356047 1.45305434 -5.88218984
O 7.10041945 3.88560561 -4.37736744
O -5.78035523 -9.15572058 1.67172178
Pu -7.21008652 -4.82624828 1.30357698
O -2.07352939 0.65482079 -9.03147070
O 7.10142514 -5.35043291 -3.84133227
Pu -1.16327680 -9.86885450 -3.21610200
O 2.82586519 5.22310476 6.55156076
O 0.49918689 0.40403055 -7.17589054
Pu 0.43704610 -8.33508986 -0.90817593
O 3.97131540 -3.54352896 -1.94449109
O 6.10422277 -5.25978467 5.05144709
Pu 0.82207022 5.75453543 -2.74130390
O 9.01733828 -5.68554420 1.93283767
O -0.08286092 1.04703219 0.72349640
Pu -2.72999960 10.55320677 5.10354631
O -1.86805236 -8.26045377 -7.02750504
O -2.38237157 -2.63218546 -3.15136246
Pu 6.31693950 7.19889054 -0.50363562
O 3.21387267 0.29597634 -7.92061356
O -3.18928664 8.35803113 -6.18643994
Pu -0.52058770 -1.05684141 0.24893776
O -2.41604057 -8.56608449 2.03345035
O -0.52645524 -6.88343928 4.02808514
Pu 5.60028431 4.28665289 -5.87778711
O -0.78339135 3.35984887 -1.23750686
O -4.85211546 4.48699392 3.88421604
Pu -0.79384257 -4.67135488 -0.39963208
O 6.55245498 2.49662177 -6.39913367
O -2.09661230 6.34101011 3.38319997
Pu 4.81575952 -1.29019432 4.49846900
O -4.12438281 -2.93734091 -5.13891869
O -7.13487409 3.30407318 0.24592393
Pu -4.57940307 6.68001114 -6.11510520
O 3.58783513 2.96230666 7.04308274
O 1.23415982 6.95280699 5.71356146
Pu -7.15258876 -4.96325008 4.94014181
O 4.27410892 -8.14546540 -3.65290824
O -8.12804616 -1.10234777 -3.71880891
Pu 1.28608626 -1.49995867 7.35473349
O -5.72836960 5.27222459 -6.92388082
O 1.50176717 -6.16006384 -3.61365460
Pu -1.84646448 4.55027447 -4.86871262
O -8.10937435 -7.04933539 -0.79379305
O 2.86689439 5.05355340 -2.41822973
Pu -6.31526912 2.23872486 -1.38248920
O 8.01420146 7.85977249 -1.19463636
O -3.18762363 -4.30519443 6.96050637
Pu -4.59881696 -7.69526171 2.49602827
O -1.42417920 -9.26327919 -0.96487757
O -0.52284656 -3.34413295 7.87209452
Pu 10.00168424 -1.28569363 0.97723433
O 5.46932090 0.38699985 5.50787308
O -3.78719366 -9.67146247 -1.70467655
Pu 2.92343545 -4.42078093 -7.39848061
O -5.01612606 2.80653293 -3.07726907
O 5.23337699 -8.31362790 -1.51997200
Pu -4.74503125 -4.09552233 -3.61271027
O 1.39795057 -3.96378355 -8.77755761
O 8.30049469 -3.35621737 4.50993268
Pu 4.60256374 4.24552575 5.51878159
O 0.59673262 4.40803360 -4.33775859
O 3.27832536 -5.83018653 4.71296919
Pu -3.60431162 -4.97900414 3.76224655
O 7.16045965 2.67460298 0.29289232
O 3.20244841 -9.33329150 -0.05519817
Pu -0.06916263 -2.87084311 -7.73006570
O -0.77051599 9.90881067 5.37778927
O -6.62835191 5.54227765 1.41686684
Pu 7.66471198 1.11018630 -0.84943200
O -0.56543641 -4.13933936 10.15406260
O 8.61059753 -0.64906899 -0.24357641
Pu 0.86981527 -4.84336524 8.75483201
O -3.24570814 -5.47767277 -7.88104226
O -3.60506556 -1.86610707 5.51536437
Pu -0.92893826 0.93314575 3.17342607
O -1.96868065 2.52234838 -4.14729998
O 1.91575765 -3.35257437 7.70897445
Pu 9.39332764 -4.09401832 3.05204199
O -1.01494198 4.26298455 4.19834081
O 4.90551365 6.64334685 5.97008919
Pu -3.27871952 -3.87402152 -6.78686723
O 1.92602449 4.88732973 -6.42069874
O 0.96170254 -10.06275279 -2.23319951
Pu -0.96816205 -0.55199733 -10.05531327
O -1.35082786 -6.50930678 -5.70430966
O 9.23777375 2.44872702 -0.42926445
