420
ML-kMC step 4500
Pu 1.42724690 5.23793109 4.01913595
O 1.75735020 1.49098516 6.56394258
O 4.83500775 -2.71935300 -3.83664344
Pu 2.28210440 3.27906427 -4.90750602
O -5.14073975 8.02715599 2.29814028
O 9.20156863 -2.44005677 -3.63194041
Pu -7.48321014 5.68784044 -0.61014811
O 2.87288874 -11.23638690 -1.97379575
O -6.37136565 -3.35781521 -4.77453354
Pu -3.68744176 3.48462519 -7.09490591
O 1.13804482 -6.34157265 6.23283282
O 4.47989216 6.70221650 8.20136680
Pu 4.99820803 -5.64020143 3.40730672
O 2.28958378 2.72745730 0.56411375
O 5.30354764 5.55884026 -4.16058722
Pu -1.64501870 4.96055608 5.89994456
O -5.58882218 0.83865589 -5.14897003
O -4.52371445 1.24604633 -1.34046099
Pu -5.20892647 4.87646880 -3.38004068
O 7.01873676 2.24061252 -2.44471766
O 3.56554581 -0.44854591 3.03249038
Pu 1.72902009 3.86953501 7.56454223
O -4.72696524 1.60443343 -7.42258628
O -6.28009556 7.19701309 -0.67698167
Pu 0.21174069 -5.12077026 -10.15551844
O 2.09605848 7.22532632 -2.06215628
O -5.02874840 3.25903245 7.26178048
Pu 5.51381295 -3.58910662 -1.14986592
O -1.81944977 2.41612486 1.78536649
O -0.29458820 3.70404286 7.05328322
Pu -0.74323444 6.79991534 1.52850223
O 3.94210566 -5.48581980 1.75160121
O 0.86508240 3.93642506 5.35633386
Pu -3.59765709 -0.25910881 -7.73635271
O 1.63427998 -6.08393143 -6.40627071
O 0.54228322 8.21235464 -4.67120277
Pu 0.20815743 3.34327108 0.78109842
O -2.14097799 4.18549140 -8.29180536
O 4.39913206 -3.37987825 4.09912523
Pu -0.01876775 3.56923923 -8.25825149
O -7.07945072 4.88604999 6.76282163
O 0.79632708 -1.29262112 -8.87864670
Pu -3.34879637 -7.24459269 -6.22139723
O -3.86399653 -5.40454987 -5.30863813
O -5.48733438 -6.06890414 3.94724862
Pu -1.24963522 -5.94580154 5.95857753
O 5.50928417 2.54138229 6.55125405
O 0.90207581 -10.20154384 0.46376121
Pu -3.04633847 7.50282304 7.30767110
O -2.00462406 1.58373958 4.75018350
O -8.27786619 5.50856350 1.29359104
Pu 4.92101000 0.91783048 -6.70095579
O 2.94290870 -5.58335510 7.80536851
O 0.56178226 6.84624818 3.26454253
Pu 3.87900076 1.10948825 6.83885895
O -3.54200177 -5.92673911 -2.73657679
O -8.82633652 -4.08367610 0.24764698
Pu 6.81140300 -2.48448314 2.00209043
O 1.23522277 3.50916918 2.64549771
O -0.83228846 6.89481916 -2.20665866
Pu 0.41119515 8.54610501 -2.56178826
O 5.11975140 8.26596266 0.78277833
O -5.63067282 -6.56735935 1.19322602
Pu -1.84030751 6.26531021 -8.10665315
O 4.16347087 6.45216160 0.42608893
O 4.03962914 2.17242604 -9.43356862
Pu 1.84141379 -7.35592459 4.51787456
O -4.11632110 2.60244012 2.31653185
O 1.71714058 9.26637009 -1.23701098
Pu 2.68425515 -4.54031209 5.92824217
O 2.94705400 -1.18924837 -9.74692175
O 0.32559379 -5.94112964 -8.39187800
Pu -8.46558961 4.48422176 4.98543952
O 9.46557896 0.77772385 1.95768335
O 4.39134317 -3.12281542 -7.08980066
Pu -0.96842092 -6.24143172 -3.62531877
O -8.58350402 6.46725793 3.90875370
O -7.23743891 5.56775093 -3.84243890
Pu 4.97663203 5.81457185 2.22266888
O 3.90191233 4.36519817 1.50004037
O -8.35409630 3.04445467 -5.13634044
Pu 10.66745241 2.89294438 -1.54797907
O 6.41929338 4.71571477 6.05022371
O -1.93783270 5.86630163 8.06264034
Pu 3.26181963 1.46121749 -0.81428954
O -0.37173091 -1.24447923 -5.96838252
O -5.55199816 -3.45625196 4.80330234
Pu -0.93833243 0.85339689 -5.62071785
O 3.42615745 5.34761579 3.74953367
O 2.92107529 7.03607892 -4.63941734
Pu -9.75464294 1.07439864 6.47751921
O -8.95644340 3.07077561 6.60717253
O 9.68382869 2.95349205 -3.57753644
Pu -8.96813990 3.56032761 1.32308503
O 5.02930431 5.66639181 -1.66534042
O -3.32866850 3.96533803 5.06991910
Pu -9.16418861 0.09303737 0.66090274
O -9.51857018 3.76344371 3.18734171
O 1.54994241 -8.41260678 -5.69109987
Pu -8.48198518 -5.17464402 -1.51244307
O -2.36603409 -0.46183572 -0.05531499
O 1.87274443 4.47172947 -8.84284641
Pu -1.69248210 -2.66015977 6.10140750
O 4.47642710 1.59740043 1.44323485
O -3.82459572 6.27623432 5.97469612
Pu -4.52639524 7.07057959 0.51943273
O -3.01946855 0.32366876 -5.81220052
O 6.14356077 4.72246159 3.52121721
Pu -0.32835217 8.19578467 4.47069697
O 0.77680293 3.77679764 9.30132863
O 7.60847420 2.15967858 2.82637949
Pu -5.27000693 -0.99001170 5.26207872
O 0.69461169 0.34987446 -10.59505758
O 4.51395089 3.02611632 -1.26851077
Pu 6.59511196 -1.24009479 -3.78106704
O 7.01721664 -5.04396070 -1.47439830
O -2.25233651 6.10514856 -6.03853091
Pu 1.93976731 -8.86545921 1.67601972
O 6.49969350 5.13282738 0.93982005
O 10.73236584 0.86581152 -2.46477944
Pu 9.13439971 2.98800985 1.58269912
O 6.64159266 -4.53131968 2.34916347
O -1.07059296 1.47272792 7.32380146
Pu -3.43911923 -1.21799293 -1.80464373
O -0.39819340 7.31255641 -7.03208784
O -0.53010128 -1.56413743 -11.27880349
Pu 1.38553624 6.60989435 -5.92646990
O -8.85823498 -4.96398983 -3.46512900
O -0.78448928 -11.49505142 -2.03985569
Pu 2.07705888 -2.42918396 -1.09383638
O -7.69404887 0.69982235 -0.79605935
O -4.21631804 -3.73223743 8.78306878
Pu 3.54547593 -9.38351135 -2.16954442
O 6.60183866 -4.32999057 -6.95627917
O -0.62991037 -4.49757647 -2.58287472
Pu 3.06126062 8.30535869 -0.02793175
O 7.99185496 0.14864467 -2.94397911
O 4.08508139 -5.69451092 -6.05624934
Pu 2.87677174 -7.02074072 -4.87349786
O -3.84264831 4.03046636 -4.97123901
O -10.02963112 -0.65162179 -1.22331970
Pu -3.09805253 7.61763619 -2.36038317
O -0.13251804 -5.11413942 1.90399564
O 4.83903339 4.81076042 -7.31738687
Pu 4.80161116 -7.50627984 0.51152941
O 0.81685287 1.68590028 -4.55413248
O -3.36544778 3.50653059 -0.01834153
Pu -3.92191377 1.29700447 -3.96579630
O 1.47151368 -4.19352759 -11.31299978
O -5.95000119 -7.35791746 -1.77642127
Pu 6.95792034 -3.69107430 5.81901362
O -4.53057158 -2.01558459 -7.30438239
O 6.37571093 -1.92503684 6.29628184
Pu 6.39126897 6.46910703 7.24085160
O -1.11070910 4.92702613 0.97675810
O -8.08551883 1.26358084 7.78274227
Pu 7.58506419 3.16199263 6.83629449
O -2.51158457 -8.14496640 -3.99271635
O -2.29845626 -2.05669790 8.14595416
Pu 5.69409524 3.92040449 -2.56975334
O -10.05114343 1.83722992 0.77994753
O -1.26712153 -3.84409440 -6.09146324
Pu -0.54315215 -3.27887843 3.01121631
O 6.57581560 -1.33576768 3.68224779
O -4.24222830 5.79681480 -1.40622029
Pu 2.68789360 -2.23172629 2.38543556
O 3.36047158 8.82964150 5.90680115
O 4.75755680 -0.17431726 -3.50953905
Pu 2.86627509 2.10166123 2.96962118
O 1.83709769 -2.81031755 -6.38609705
O 7.49702992 1.66533516 8.05926580
Pu 1.03444640 -11.38544689 -1.07276998
O -7.56585345 1.90466157 2.06374421
O 0.06997630 -8.31782652 1.19848510
Pu -6.61754531 -8.08580127 -0.03865908
O -7.13360971 -0.48150728 -6.54839595
O 2.83985126 -3.56184617 1.01162402
Pu 6.29536420 -2.30413162 -7.16159398
O -4.91321463 -8.01519149 -4.82486128
O 0.20238889 -1.98183532 -1.10934801
Pu 5.93406842 -6.85198167 -2.52568744
O 6.68008813 -7.03069625 -0.17181993
O -7.81875051 -5.25155806 3.07539889
Pu 3.20261534 4.82751945 -0.40566295
O -9.62850221 -1.74950986 -3.42651592
O -5.54105322 -3.55462034 1.57278126
Pu 0.11559701 -7.48134182 -6.86958856
O 5.33859534 -2.35358739 0.41047973
O -5.44879111 1.07970835 5.27132014
Pu -4.95657923 -3.66872806 6.99851917
O -2.26443060 -5.97703298 -0.25826597
O 1.44535712 2.25277590 -8.40536356
Pu 5.93710013 3.08659410 2.04325661
O -6.29934594 -1.88508096 6.95124996
O 4.80420155 7.41117633 3.34542260
Pu -3.14620088 1.59072163 0.35428941
O 1.22163745 4.72494233 -0.49354562
O -0.29849169 -2.99389010 0.88319310
Pu 8.16656254 0.35723136 3.66580793
O 4.62671940 2.87386872 3.80919706
O -0.38694008 6.24029864 -4.64562660
Pu -4.27057812 -5.51308982 -0.30072686
O 1.49706642 -3.61190416 3.44709187
O -6.63933303 4.29401880 -2.01772179
Pu -1.66630900 -0.17094948 8.38183481
O -6.30978540 -0.81031398 3.50424771
O 8.38390976 0.09152963 5.64021234
Pu 1.95609915 -0.75430687 -7.10414032
O 6.90995665 0.14251003 -5.10367124
O 2.38180577 -9.13588937 3.64755785
Pu 8.03099220 2.01306950 -4.43454359
O -3.48742140 -5.84996218 1.91476329
O -0.36998947 5.39773934 -8.94727757
Pu 2.87827274 7.00203303 6.88862080
O 4.97584444 -0.21443152 7.82589432
O -0.86231755 -1.11757188 2.72483911
Pu 8.38969159 -4.12006076 -2.91335425
O -2.49963957 5.36305432 -2.96945230
O -2.37120911 0.83464025 -2.21854288
Pu -5.25515305 4.77730704 5.61398517
O -6.11469878 -5.30082828 6.59670592
O 1.70611933 6.99165470 0.85417085
Pu 5.49519950 -4.53165488 -5.07324543
O -0.23099702 -1.13955271 5.88041425
O 0.40791186 -0.40890478 8.55381611
Pu 4.19546841 6.96997229 -3.21410021
O -2.64949724 3.49172327 7.22967567
O -6.41790408 -5.22918018 -0.57102601
Pu 2.44129945 0.95017425 -9.77406699
O 1.49869109 -1.07705100 1.18197213
O -7.52229854 1.28445879 -3.11227729
Pu -0.53856040 -2.60108373 -3.87195207
O 6.56754385 8.15960480 6.12313309
O 9.09357600 4.89000291 2.63738885
Pu 7.97318558 4.82672065 4.39464966
O 10.68858202 -1.68860507 -0.71926978
O -2.26913558 1.66283039 9.47746954
Pu 1.91842346 -5.45048224 1.27946917
O 0.38068672 -6.40585697 -0.29550917
O -10.04272750 -0.98050395 7.02145540
Pu -6.97127182 2.86056894 7.41919771
O 8.41558818 5.21298649 6.51422993
O 1.56412350 1.74521414 -2.04234449
Pu 9.63785254 -0.86034179 -2.32934637
O 1.59049876 -2.17606821 -3.35782861
O -4.55344326 0.31241933 1.20738437
Pu -7.08810375 -1.22814694 -1.94073162
O -4.88069754 -0.92195315 -3.39081158
O -1.65115371 3.12100045 -6.39347186
Pu -5.72373468 -1.56042403 1.30517925
O 4.68979005 -5.87655614 -1.21808751
O 8.33587850 2.85370364 4.87682005
Pu -9.41599972 0.34301740 -3.01377221
O 9.38209655 -5.23432628 -1.09916574
O 3.14082801 -0.68426992 -1.39833927
Pu -7.03559912 6.62485687 2.77671885
O -1.63799723 8.78280920 -3.48273680
O 2.43316743 -7.66863198 -2.12950090
Pu -2.12174036 -4.00999544 9.04522389
O -3.63806603 8.61881828 4.86511227
O 4.59245245 8.14381704 -1.69843680
Pu -8.21030962 -3.08808890 -4.08525659
O 10.87724087 2.88579921 0.61554152
O -9.24451783 1.28495543 4.60641627
Pu 3.35896531 3.55710759 -8.08407993
O -1.04335131 -5.64758373 8.06823076
O -2.86040505 -6.74785022 4.03796438
Pu -8.58165439 4.03285574 -3.36040109
O 2.70785647 -6.89783865 0.15992265
O 8.47317117 -1.50846762 2.65980404
Pu 1.45261314 -2.18372512 -10.70828930
O -4.34217944 6.96210220 -4.10484324
O -8.27105887 -3.41913297 5.09313834
Pu -1.34944610 3.42727491 8.89046814
O -4.37897665 -8.02245102 0.11918550
O -2.13077821 -1.81032228 -8.19347097
Pu -2.40157519 4.87605243 -1.01657427
O -1.41966679 8.51528260 2.67502953
O 4.48352631 3.55496077 -4.35147823
Pu -3.72484415 1.95406985 6.18189770
O -4.16982688 -3.63258941 -1.44984702
O -0.85564450 -0.45620205 -3.47472198
Pu -1.26956766 -6.91444953 2.21471507
O -1.68730303 -4.18428931 4.57211382
O -7.54379805 -0.27665721 5.39496731
Pu -0.17353190 2.13312250 5.64031056
O 0.53968578 -3.97672457 5.69331615
O 4.97693232 -7.45934283 2.58073325
Pu 3.30217113 -1.36564550 -4.09653844
O -6.82296602 3.07125442 5.25206156
O -5.33299233 -1.32119780 -0.85615264
Pu 6.97766977 -0.10428816 7.05200412
O -3.94084689 5.72251925 2.08474113
O 4.35919571 -5.72575597 -3.59013400
Pu -7.30501606 1.26733197 4.06651634
O 0.95436689 1.40736190 3.94385824
O 6.04182447 -0.46409889 -7.59755226
Pu -8.32203782 -1.96027513 6.31894706
O -8.93889760 4.64555395 -1.53710481
O 8.21967645 -3.50676984 0.97830172
Pu 2.69144275 -5.61933127 -1.89764021
O 10.68430906 -2.85481412 2.23820072
O 6.71464012 -2.73941589 -5.17672114
Pu -1.43938022 8.14895655 -5.33823690
O 7.07353799 -2.61661579 -2.25244899
O -9.77709010 2.21612933 -3.08783955
Pu -3.81483311 6.79296984 3.88385748
O -1.67061617 7.05641612 5.71989750
O -0.44971952 -3.18455052 -9.71436639
Pu -5.61642084 -1.40764090 -5.30074646
O 3.43938424 -0.43047921 -5.81576576
O -3.50210415 -0.04607008 6.80954117
Pu -2.80807185 -9.33306391 0.29385669
O -3.79568247 6.05121358 -7.85809113
O -7.41061940 -3.24408669 -2.16580510
Pu -4.25314099 -7.90323106 -2.90573422
O 1.43162131 -4.39454199 -0.75673166
O -2.24088340 6.69111770 -0.02337066
Pu -5.88029467 3.59388043 2.04041311
O -0.27312139 -7.97477854 -2.85628213
O -5.84512979 6.55764584 4.58375014
Pu 7.90569224 -5.56024084 0.43042461
O 3.69333056 2.61644776 -6.34780864
O -3.05472644 9.51043810 7.15830855
Pu -0.44596780 1.67240250 -2.50267141
O -2.54646614 -3.30694500 2.62685253
O 3.21815106 -1.10227151 5.83340236
Pu 4.98339424 8.47253756 4.91943849
O -7.15915665 4.44462771 3.36763340
O -3.65081560 8.56277822 -0.78063414
Pu -2.83003094 4.06803943 2.94005433
O 1.57683992 -7.04175092 2.50328720
O -7.55361333 -1.26254236 0.41437058
Pu -7.18430376 1.61861357 -5.91627860
O 7.10078424 3.82770235 -4.24863439
O -5.72717447 -9.16578460 1.80850172
Pu -7.21089882 -4.83205388 1.30681190
O -2.21378875 0.79465939 -8.84368464
O 6.85383321 -5.31321539 -3.87155328
Pu -1.24560279 -9.79027478 -3.15808828
O 2.70874376 5.17062907 6.12146584
O 0.18219849 0.37518069 -7.32468584
Pu 0.46730586 -8.25158638 -0.92230623
O 3.53803404 -3.54066754 -1.70437408
O 6.07650367 -5.20250948 5.01475050
Pu 0.71330932 5.55898416 -2.59742030
O 8.78720442 -5.91380584 2.36615448
O -0.25636194 1.13051291 0.62693794
Pu -2.87491640 10.38807721 5.27656375
O -1.68436304 -8.29109032 -7.19804206
O -2.57881045 -2.64357280 -3.07512614
Pu 6.14009449 7.04575129 -0.49625794
O 3.17381053 0.56796421 -7.84349142
O -3.00376405 8.10196928 -6.68640997
Pu -0.46118892 -0.97277148 0.43482061
O -2.77940272 -8.37028135 1.98557593
O -0.34891851 -7.00422659 4.25599616
Pu 5.79083186 4.19425688 -5.75318076
O -0.83331594 3.51196492 -1.43601200
O -4.81429286 4.51581766 3.60203538
Pu -0.74106508 -4.48330262 -0.48434588
O 6.19541233 2.20700400 -5.95628665
O -1.99386002 6.25684292 3.22935943
Pu 4.81575952 -1.29019432 4.49846900
O -3.93945273 -2.90573567 -5.27999140
O -7.07549099 3.35763467 0.25081171
Pu -4.60811164 6.72996546 -6.20083997
O 3.48727186 3.22485868 7.00524086
O 1.06161308 6.97337197 5.79784062
Pu -7.06102891 -5.03660865 4.84221759
O 4.52288035 -8.18048836 -3.84436648
O -7.59431733 -0.96493335 -4.03991618
Pu 1.37085512 -1.56853359 7.21376507
O -5.51478859 4.86241485 -6.33467247
O 1.50737693 -5.89378687 -3.61176819
Pu -1.73099387 4.59731161 -4.78989709
O -8.38092249 -6.81534035 -0.44168608
O 2.68303499 5.04860449 -2.60466522
Pu -6.34369944 2.10192090 -1.39471573
O 7.86330136 7.61595359 -1.21720182
O -2.88498178 -4.58064405 6.65752600
Pu -4.61323366 -7.68557317 2.58014108
O -1.40169621 -9.14118872 -1.00227382
O -0.50898839 -3.43106204 7.73339000
Pu 10.13642896 -1.25086516 1.15856746
O 5.49729889 0.33154717 5.39025377
O -3.44874696 -9.48709915 -1.81810974
Pu 2.76557402 -4.33975918 -7.17587138
O -4.98173164 2.77050700 -3.08139247
O 5.27797672 -8.50994880 -1.36557018
Pu -4.46517558 -4.25889306 -3.62700536
O 1.51009770 -3.84500930 -8.75084229
O 8.60060512 -3.47760006 4.79754432
Pu 4.52575832 4.21744168 5.31314327
O 0.55182202 4.27058028 -4.37888798
O 3.34323231 -5.92761576 4.64768654
Pu -3.62056250 -4.66657413 3.64716471
O 7.08049192 2.47236066 0.56760310
O 3.25615031 -9.21950113 0.17979005
Pu -0.06045577 -2.78549804 -7.70230326
O -0.89216350 9.98599911 5.15431667
O -6.13953185 5.60778769 1.15557737
Pu 7.47084104 1.13752742 -0.85899390
O -0.45022308 -4.26626755 9.93611621
O 8.41840279 -0.64715941 -0.37335258
Pu 0.94881007 -4.99426304 8.41385503
O -3.16968624 -5.71788355 -7.78147874
O -3.74053007 -2.19655637 5.70249280
Pu -0.96524752 0.85633532 3.08188974
O -1.88753087 2.46100465 -4.12527746
O 2.17968913 -3.33992940 7.55523729
Pu 9.33115579 -4.12267458 3.03136856
O -1.04886492 4.21783444 4.10115834
O 4.84819286 6.44726174 5.81403575
Pu -3.21151750 -3.87817843 -6.98065361
O 1.73125969 4.56726436 -6.45507474
O 1.00274003 -9.76087910 -2.18639991
Pu -1.01628942 -0.45276964 -9.77166556
O -1.20207981 -6.55305743 -5.58121256
O 9.05179366 2.41791818 -0.59596568
