420
ML-kMC step 2000
Pu 1.42724690 5.23793109 4.01913595
O 1.69503318 1.46551059 6.64690114
O 4.68283668 -2.85958087 -3.99270553
Pu 2.34959597 3.24871294 -4.93755978
O -5.26658607 7.84110267 2.38234749
O 9.43862549 -2.55506456 -3.57076696
Pu -7.48321014 5.68784044 -0.61014811
O 2.99895729 -11.46849338 -1.84754073
O -6.51817743 -3.19715595 -4.56142412
Pu -3.75360224 3.54761402 -7.17529220
O 1.16433126 -6.46554438 6.17915626
O 4.54855646 6.37275431 8.32791814
Pu 5.01695305 -5.65334028 3.39996595
O 2.28958378 2.72745730 0.56411375
O 5.44688382 5.68717238 -4.30734273
Pu -1.54557219 5.05446723 6.03347762
O -5.50364601 0.92792917 -5.11506015
O -4.52371445 1.24604633 -1.34046099
Pu -5.20892647 4.87646880 -3.38004068
O 7.17043432 2.32686181 -2.58395423
O 3.56554581 -0.44854591 3.03249038
Pu 1.73336989 3.89443336 7.63655151
O -4.31547260 1.54952353 -7.48530047
O -6.17821053 7.13043365 -0.84107363
Pu 0.25840793 -5.08450271 -10.02816451
O 2.11043155 7.35281637 -2.37134408
O -5.29734754 3.32543673 7.29033642
Pu 5.74966028 -3.53805265 -1.17224625
O -1.70409690 2.35202392 1.91180876
O -0.41530069 3.76421958 7.05830002
Pu -0.80181275 6.78466455 1.49167002
O 3.94754986 -5.50071054 1.76211603
O 0.89628351 3.96612150 5.49854502
Pu -3.57139552 -0.32023638 -7.77142148
O 1.43918679 -6.00703405 -6.15747074
O 0.55655741 8.32722988 -4.65878888
Pu 0.17003660 3.27158895 0.71726446
O -1.84881895 4.09158647 -8.36205149
O 4.71732532 -3.32252512 4.10522241
Pu 0.01220669 3.68681485 -8.51554341
O -7.12500639 4.94544035 6.87350552
O 0.87303267 -1.30737704 -8.98471569
Pu -3.36061005 -7.09950166 -6.11744218
O -4.20587412 -5.30336548 -5.38388209
O -5.44261938 -5.39899300 3.91308332
Pu -0.84366772 -5.93474533 5.78785574
O 5.80459241 2.51421870 6.63027937
O 0.94440659 -10.56478304 0.42327392
Pu -2.92761439 7.66700158 7.27559890
O -1.96151121 1.71484899 4.81669929
O -8.89186982 5.65205150 0.78451366
Pu 4.86688130 0.96253444 -6.87641737
O 2.75382416 -5.53901725 7.98857655
O 0.40036280 6.80747308 3.42490855
Pu 3.94240901 1.06416653 6.90321599
O -3.59788683 -5.98721434 -3.00768848
O -8.78675614 -4.17688567 0.15187281
Pu 6.89254527 -2.45456281 1.95799610
O 1.23912700 3.59140513 2.61730020
O -0.72656501 6.97829141 -2.22090617
Pu 0.42741382 8.69169183 -2.58365632
O 4.87703683 8.28018527 0.89452248
O -5.90171421 -6.51584388 1.28757830
Pu -1.75306261 6.42958167 -8.13681085
O 4.30094314 6.35656956 0.21819320
O 4.08258627 2.10935698 -9.46694154
Pu 1.92573636 -7.48023085 4.54242592
O -4.12430952 2.52465616 2.51862746
O 1.44650498 9.26417881 -0.93789818
Pu 2.64354793 -4.61414138 6.05499008
O 2.98297216 -1.03796766 -10.00764998
O 0.46357634 -6.40539590 -8.58489505
Pu -8.71838532 4.67977828 5.08946364
O 9.42412716 0.62463071 1.89428177
O 4.41850860 -2.84697310 -7.38669089
Pu -0.93211746 -6.34028391 -3.60357080
O -8.37644376 6.50266237 4.19254029
O -7.01391625 5.42523633 -4.09071130
Pu 4.97663203 5.81457185 2.22266888
O 3.90191233 4.36519817 1.50004037
O -8.08510857 3.26781714 -5.41122190
Pu 10.92706586 2.83341477 -1.24257145
O 6.47473597 4.75059827 6.10088407
O -1.70576435 6.11791498 8.05735172
Pu 3.31224777 1.40930522 -0.81237284
O -0.27972827 -1.51628095 -5.94424958
O -5.58758681 -3.12112926 5.16895934
Pu -1.02537509 1.01358060 -5.58720449
O 3.56218048 5.27089920 4.05718670
O 3.04370158 7.26744388 -4.79164477
Pu -9.67434204 1.22951681 6.79844502
O -9.13867635 3.26615389 6.73279706
O 10.48211390 3.35209210 -3.17374694
Pu -9.15251256 3.51425572 1.32534302
O 5.43123871 5.89701027 -1.81496077
O -3.33496774 4.09162852 5.20544750
Pu -9.21844138 0.08802569 0.76174749
O -9.77375854 3.81875170 3.38789564
O 1.81771287 -8.55693524 -5.96049756
Pu -8.32258444 -5.12814699 -1.49213732
O -2.46195718 -0.43589851 -0.33562387
O 1.95138976 4.65138020 -9.02298742
Pu -1.80800228 -2.71873537 6.18931464
O 4.48752238 1.55923525 1.64279940
O -3.86307902 6.36217169 6.03060170
Pu -4.52926156 7.08571220 0.51514685
O -2.96840662 0.14327843 -5.66397651
O 6.14356077 4.72246159 3.52121721
Pu -0.43033862 8.20415125 4.52581442
O 0.56704407 3.65333497 9.16786416
O 7.66163046 2.12171496 2.78922595
Pu -5.58764130 -1.02940140 5.34474768
O 0.53093689 0.65609511 -10.71823783
O 4.60237555 3.10663795 -1.38592985
Pu 6.60617193 -1.20875933 -3.67883979
O 6.92932839 -5.16461176 -1.41780031
O -2.31734385 6.22070076 -6.01475494
Pu 1.96125581 -9.12321011 1.71579813
O 6.65213049 5.18730430 1.21173048
O 10.24410472 1.00081905 -2.11235335
Pu 8.98658638 3.05812648 1.51531534
O 6.70054092 -4.53343730 2.47089079
O -1.05069285 1.36639502 7.32133305
Pu -3.43609924 -1.22311947 -1.96316245
O -0.49669101 7.64508867 -7.01154567
O -0.32198321 -1.42312703 -11.57705417
Pu 1.44070961 6.82443138 -5.84431613
O -8.70336572 -5.18253499 -3.70966084
O -0.86474764 -11.57202222 -2.05944156
Pu 2.29399829 -2.43785998 -1.18516043
O -7.85985353 0.67372360 -0.90972898
O -4.23466782 -3.80264962 9.02288455
Pu 3.57846004 -9.47070504 -2.18949414
O 6.49451377 -4.23410457 -6.75836488
O -0.65392449 -4.56657374 -2.54400299
Pu 3.10535041 8.23140417 -0.12553476
O 8.11906094 0.01780073 -3.01636744
O 4.01585539 -5.78552856 -6.23061984
Pu 2.86442602 -7.11531564 -4.94606330
O -4.00515039 4.08097143 -5.09989073
O -10.05728847 -0.40720080 -1.08080135
Pu -3.17200820 7.36490206 -2.39110386
O -0.18936393 -5.11450965 1.86118922
O 5.04172310 4.98400693 -7.57629835
Pu 4.69191424 -7.45831413 0.33338533
O 0.75438328 1.80187219 -4.48625697
O -3.19817473 3.65217110 0.25877668
Pu -3.90765123 1.40028346 -3.99527275
O 1.60477698 -4.19304789 -11.35318531
O -5.43668147 -7.11595216 -1.38325360
Pu 6.93405905 -3.76204790 5.94361387
O -4.70368552 -2.14439250 -7.27182039
O 6.39754905 -1.84733879 6.36103729
Pu 6.45029439 6.44034485 7.15053688
O -1.00889405 4.90249542 0.90995680
O -8.29801997 1.51914762 8.31118210
Pu 7.83950848 3.27179592 7.04292632
O -2.37573876 -8.17946209 -3.81190584
O -2.29815960 -2.09396753 8.22684366
Pu 5.81146042 4.08395387 -2.69897489
O -10.13478255 1.82733273 0.84427478
O -1.18128535 -3.79009218 -6.31659909
Pu -0.54926957 -3.16291470 3.01907156
O 6.66880901 -1.28598046 3.54525627
O -4.15078249 5.75330846 -1.49113995
Pu 2.68789360 -2.23172629 2.38543556
O 3.51812984 8.86195726 6.06511518
O 4.82002469 -0.17815303 -3.22125537
Pu 2.94005329 2.17624857 3.07920168
O 2.11660610 -2.79901362 -6.42851616
O 7.96572947 1.57925802 8.02097216
Pu 1.09951332 -11.65059804 -1.18031343
O -7.40083437 1.90862982 2.21118604
O -0.03814341 -8.32284920 1.11073054
Pu -6.65170518 -8.15589445 -0.03696015
O -7.21847281 -0.35937216 -6.60175755
O 2.83599886 -3.67413713 1.03455758
Pu 6.40856638 -2.28048559 -7.15457972
O -4.76384044 -7.99892424 -4.70996771
O 0.22282143 -2.30386322 -1.21322832
Pu 5.94748124 -6.90250446 -2.62213005
O 6.57402259 -7.08710119 -0.04714625
O -7.99383664 -5.05926482 3.12177495
Pu 3.20261534 4.82751945 -0.40566295
O -9.97275014 -1.98775421 -3.75211748
O -5.63493959 -3.60757185 1.31581405
Pu 0.11890766 -7.53222108 -6.91509279
O 5.45439569 -2.28891809 0.25346929
O -5.51968230 0.98823932 5.26209316
Pu -5.08604698 -3.74809556 7.17805168
O -2.17343466 -6.07051081 -0.01362664
O 1.46219564 2.36092581 -8.56343014
Pu 5.93710013 3.08659410 2.04325661
O -6.42305102 -1.99085252 7.08379516
O 4.78178770 7.39663037 3.40606408
Pu -3.35429966 1.55315495 0.37943603
O 1.20262425 4.97063110 -0.55912462
O -0.22557380 -3.08246992 0.87186623
Pu 8.36322873 0.35334469 3.63452179
O 4.62671940 2.87386872 3.80919706
O -0.54899929 6.15990982 -4.74602976
Pu -4.34248485 -5.61841835 -0.32300429
O 1.49706642 -3.61190416 3.44709187
O -6.50569227 4.27260574 -1.77506450
Pu -1.73590950 -0.16261023 8.50423624
O -6.35825575 -0.87633743 3.11212664
O 8.61969740 0.24212350 5.63164747
Pu 1.91937702 -0.92221447 -7.13677776
O 6.55983745 0.45271900 -5.01550670
O 2.44790334 -9.18252366 3.61887488
Pu 8.03099220 2.01306950 -4.43454359
O -3.72214453 -5.91333883 1.88393131
O -0.18251573 5.60991110 -9.12434951
Pu 2.96583701 6.98720462 6.91257610
O 5.21692909 -0.07124579 7.97471358
O -1.01921522 -0.97635671 2.47724379
Pu 8.56147238 -4.14595064 -2.80799863
O -2.66838386 5.28150833 -3.05648197
O -2.44489378 1.10846723 -2.18335435
Pu -5.31741508 4.84446434 5.71669402
O -6.14730096 -5.35250783 6.58280772
O 1.60182180 7.28144696 0.93943847
Pu 5.55883193 -4.42556926 -5.03022954
O -0.17835177 -1.34607362 5.88227810
O 0.51935442 -0.43149516 8.86583029
Pu 4.23700762 7.01542954 -3.23657751
O -2.72035664 3.34799772 7.36283548
O -6.43135659 -5.15617006 -0.68922220
Pu 2.28388864 0.92357655 -9.70386632
O 1.37901036 -1.13381089 1.41742591
O -7.30103701 1.00267796 -3.04100421
Pu -0.53856040 -2.60108373 -3.87195207
O 6.62601987 8.22788964 6.15251456
O 9.03424921 4.52411785 2.81058069
Pu 7.92685669 4.70890558 4.41334405
O 10.91598450 -1.64005647 -0.80522112
O -2.18575471 1.43027562 9.64458605
Pu 1.91842346 -5.45048224 1.27946917
O 0.31278579 -6.33508199 -0.44699869
O -10.00523801 -0.71487338 6.78382151
Pu -7.22238306 3.12221714 7.81794421
O 8.47372327 5.23695988 6.55395854
O 1.47566295 1.71591627 -1.90296694
Pu 10.02268382 -0.86559678 -2.40762984
O 1.65010359 -2.26056126 -3.42672244
O -4.85184149 0.49929392 1.25718583
Pu -7.08810375 -1.22814694 -1.94073162
O -4.87895596 -1.13939638 -3.50784072
O -1.70435460 3.20835388 -6.35844854
Pu -5.69061104 -1.48765962 1.25997671
O 4.59314019 -5.93054432 -1.23558955
O 8.18943138 2.83061018 5.07084445
Pu -9.43608850 0.30818614 -2.87204142
O 9.09016548 -5.04806066 -1.19519474
O 3.21946801 -0.68902106 -1.42492147
Pu -6.95693640 6.80248123 2.91436230
O -1.69043142 8.75614174 -3.40960997
O 2.24766000 -8.01111829 -2.08856135
Pu -2.29437481 -3.92312095 9.17899962
O -3.68662644 8.81416509 4.89185136
O 4.69118321 8.14034679 -1.74210499
Pu -8.42732443 -3.18722596 -4.21121567
O 11.16316453 3.05450520 0.63866567
O -9.24317925 1.19123668 4.92702611
Pu 3.38856413 3.54852750 -8.20080157
O -0.76069381 -5.74626758 7.82355142
O -3.20563328 -7.02416289 4.06902228
Pu -8.52291550 4.17068527 -3.55277670
O 2.69940296 -7.00363890 0.23988516
O 8.77667584 -1.54457171 2.58916859
Pu 1.36963297 -2.13236433 -10.77620717
O -4.51050377 6.80891670 -4.01260561
O -8.33484423 -3.60757726 5.35348703
Pu -1.38144694 3.16208690 8.82692634
O -4.12170543 -7.89077602 0.24043592
O -1.98861577 -1.79128253 -8.26564641
Pu -2.31751470 4.90290539 -1.10127643
O -1.59398385 8.73569058 2.93269384
O 4.41693686 3.63444620 -4.28109883
Pu -3.80807434 2.00402821 6.16710222
O -4.18625378 -3.75742865 -1.58854572
O -0.85564450 -0.45620205 -3.47472198
Pu -1.26468418 -6.86325762 2.18297032
O -1.73304165 -4.35569587 4.60800827
O -7.61284621 -0.46014085 5.27263193
Pu -0.17353190 2.13312250 5.64031056
O 0.47627164 -4.14564619 5.72299867
O 5.04699699 -7.49507864 2.42049142
Pu 3.30217113 -1.36564550 -4.09653844
O -7.06441916 2.87309183 5.31340275
O -5.34072701 -1.26112951 -0.97233954
Pu 7.07753391 -0.00142569 6.96288663
O -4.11589722 5.61005775 1.97687190
O 4.56234716 -5.89326160 -3.72436693
Pu -7.39723024 1.24584171 4.17803402
O 1.17900994 1.28539491 4.01009114
O 6.01197199 -0.43737425 -7.63152050
Pu -8.52932924 -1.92814972 6.27847506
O -8.86523313 4.61692080 -1.58783854
O 8.12455745 -3.42048714 0.73001043
Pu 2.56002659 -5.92190844 -1.89522253
O 10.65136077 -2.92834548 2.17226544
O 6.80043069 -2.52978251 -5.22332967
Pu -1.47233094 8.17724104 -5.31559496
O 7.07750152 -2.67023071 -2.43019872
O -9.61468931 2.26866205 -3.49446123
Pu -3.88661566 6.91521376 3.95492917
O -1.57822343 7.24872161 5.87588086
O -0.57840713 -3.22641602 -9.86955587
Pu -5.64231480 -1.40683210 -5.44880595
O 3.43256439 -0.41282768 -5.74398425
O -3.49344205 0.34642427 7.26860826
Pu -2.88730079 -9.55044777 0.22283586
O -3.69111094 5.76330024 -7.68935767
O -7.52743274 -3.18879168 -2.30900707
Pu -4.23587132 -7.85537233 -2.83018410
O 1.53444770 -4.37159963 -0.81893546
O -2.15782415 6.72656066 -0.09410310
Pu -6.01048572 3.65331704 2.20801388
O -0.27290977 -8.06432153 -2.85858492
O -5.83214833 6.82440999 4.56792832
Pu 7.83851237 -5.70524402 0.38279761
O 3.77702924 2.69257698 -6.46424208
O -3.02000716 9.81494173 7.04509897
Pu -0.49014544 1.72356612 -2.46744594
O -2.52583316 -3.53973317 2.64229111
O 3.26435956 -1.17399369 5.98930855
Pu 5.15570252 8.62069947 4.83475351
O -7.16492400 4.66365119 3.44641653
O -3.75270220 8.41345769 -0.87270793
Pu -2.83003094 4.06803943 2.94005433
O 1.39129413 -7.12338118 2.50152657
O -7.67786265 -1.25534546 0.56402034
Pu -7.25852771 1.50695648 -5.87132989
O 7.20845547 3.91520595 -4.40081422
O -5.94167297 -9.08630422 1.67765376
Pu -7.21089882 -4.83205388 1.30681190
O -2.13858005 0.75079715 -8.83392015
O 7.14418354 -5.44887764 -3.80735409
Pu -1.16662308 -9.90553896 -3.15553660
O 2.79252300 5.17286375 6.29226469
O 0.38431693 0.48333736 -7.14834251
Pu 0.46730586 -8.25158638 -0.92230623
O 3.98352296 -3.68365997 -1.98005564
O 6.02457968 -5.19086572 4.98517961
Pu 0.82207022 5.75453543 -2.74130390
O 9.17788812 -5.83631025 2.15095034
O -0.25804736 1.13205993 0.63317969
Pu -2.71255255 10.44473970 5.17772770
O -1.86598244 -8.35992478 -7.01100019
O -2.38914331 -2.57596457 -3.19865690
Pu 6.31693950 7.19889054 -0.50363562
O 3.07365958 0.44940887 -7.98945712
O -3.22469425 8.45069619 -6.21483614
Pu -0.52826706 -0.87640949 0.42821051
O -2.70272776 -8.68815858 2.07905999
O -0.22821119 -7.06833242 4.16955753
Pu 5.83924879 4.43405377 -5.87149662
O -0.76138801 3.36844990 -1.30093914
O -4.79691311 4.49738336 3.76770889
Pu -0.74106508 -4.48330262 -0.48434588
O 6.48965283 2.46620891 -6.34438014
O -1.95265424 6.23596652 3.23768541
Pu 4.81575952 -1.29019432 4.49846900
O -4.12438281 -2.93734091 -5.13891869
O -7.13487409 3.30407318 0.24592393
Pu -4.61155471 6.68541289 -6.15133575
O 3.48160600 3.07690661 7.06183636
O 1.08962771 6.93826433 5.86448368
Pu -7.10824259 -5.16889228 4.81983233
O 4.14041035 -8.06872870 -3.52842079
O -8.12804616 -1.10234777 -3.71880891
Pu 1.28608626 -1.49995867 7.35473349
O -5.47660158 4.89356160 -6.70948938
O 1.50176717 -6.16006384 -3.61365460
Pu -1.84646448 4.55027447 -4.86871262
O -8.13253602 -6.98200589 -0.79316196
O 2.81263154 5.07208407 -2.64350831
Pu -6.31526912 2.23872486 -1.38248920
O 7.95001021 8.09971685 -1.10136185
O -3.01446191 -4.43229146 6.74893505
Pu -4.59881696 -7.69526171 2.49602827
O -1.40579621 -9.27760913 -0.99898700
O -0.46652888 -3.42880132 7.86509487
Pu 10.03629548 -1.32506242 0.94661719
O 5.38363201 0.38070172 5.41740554
O -3.75555030 -9.68326461 -1.67401892
Pu 2.98869403 -4.41715072 -7.35900247
O -5.01612606 2.80653293 -3.07726907
O 5.34829788 -8.51980246 -1.50683305
Pu -4.74503125 -4.09552233 -3.61271027
O 1.39795057 -3.96378355 -8.77755761
O 8.44986435 -3.50766303 4.68397538
Pu 4.53387043 4.18579389 5.44293447
O 0.59330117 4.41662811 -4.33713056
O 3.27832536 -5.83018653 4.71296919
Pu -3.59153345 -4.97254642 3.74908828
O 7.16045965 2.67460298 0.29289232
O 3.36523257 -9.22431408 0.17479783
Pu -0.06289522 -2.83912383 -7.72029001
O -0.80632153 9.81948047 5.50229659
O -6.64641282 5.55991445 1.39767099
Pu 7.66471198 1.11018630 -0.84943200
O -0.52209124 -4.16284058 10.10159503
O 8.48100391 -0.75419366 -0.41410833
Pu 0.89913260 -4.82220733 8.68596208
O -3.16013555 -5.61623706 -7.71867609
O -3.61401849 -1.95653647 5.50194135
Pu -0.92946753 0.94026815 3.17900430
O -1.96868065 2.52234838 -4.14729998
O 2.29226738 -3.28248904 7.65652013
Pu 9.47907878 -4.16179672 3.02001568
O -1.01494198 4.26298455 4.19834081
O 4.90221214 6.54498049 5.99568994
Pu -3.27871952 -3.87402152 -6.78686723
O 1.95322154 4.82236952 -6.42340042
O 0.95522833 -9.98982156 -2.21001119
Pu -1.06928887 -0.43955106 -9.98522173
O -1.22610048 -6.59874498 -5.59285979
O 9.12058099 2.43560466 -0.43358353
