420
ML-kMC step 4000
Pu 1.42724690 5.23793109 4.01913595
O 1.75735020 1.49098516 6.56394258
O 4.67856180 -2.87623694 -4.00236387
Pu 2.35920435 3.27006060 -4.84321727
O -5.28692899 7.91500778 2.36796098
O 9.20156863 -2.44005677 -3.63194041
Pu -7.48321014 5.68784044 -0.61014811
O 2.80725317 -11.26100343 -2.04561535
O -6.37136565 -3.35781521 -4.77453354
Pu -3.68744176 3.48462519 -7.09490591
O 1.13804482 -6.34157265 6.23283282
O 4.66527296 6.51479142 8.39094218
Pu 4.99820803 -5.64020143 3.40730672
O 2.28958378 2.72745730 0.56411375
O 5.40530725 5.56849823 -4.18421575
Pu -1.63794343 5.10522881 6.02178105
O -5.50364601 0.92792917 -5.11506015
O -4.52371445 1.24604633 -1.34046099
Pu -5.20892647 4.87646880 -3.38004068
O 7.01783136 2.32400793 -2.47841435
O 3.56554581 -0.44854591 3.03249038
Pu 1.73336989 3.89443336 7.63655151
O -4.72696524 1.60443343 -7.42258628
O -6.30056565 7.28534843 -0.94197933
Pu 0.19576984 -5.05341900 -10.11993957
O 2.29378229 7.09808979 -2.11612580
O -5.02874840 3.25903245 7.26178048
Pu 5.51381295 -3.58910662 -1.14986592
O -1.69498831 2.36800937 1.92176239
O -0.29458820 3.70404286 7.05328322
Pu -0.74323444 6.79991534 1.52850223
O 3.94210566 -5.48581980 1.75160121
O 0.86508240 3.93642506 5.35633386
Pu -3.59765709 -0.25910881 -7.73635271
O 1.55867243 -6.12711090 -6.40795683
O 0.52688220 8.53429114 -4.67687474
Pu 0.13799071 3.27718520 0.83186685
O -2.13213636 4.18023129 -8.32410078
O 4.39913206 -3.37987825 4.09912523
Pu 0.06485903 3.63746881 -8.20449562
O -7.02299986 4.87498389 6.71524593
O 0.79632708 -1.29262112 -8.87864670
Pu -3.34879637 -7.24459269 -6.22139723
O -3.82578495 -5.38949633 -5.30365957
O -5.50519684 -6.04471044 3.80387496
Pu -1.12373334 -5.91658130 5.97802440
O 5.50928417 2.54138229 6.55125405
O 0.90207581 -10.20154384 0.46376121
Pu -3.02351004 7.60039119 7.22473890
O -2.00462406 1.58373958 4.75018350
O -8.32142227 5.52701237 1.32031423
Pu 4.80455246 0.89148584 -6.70830606
O 2.99965703 -5.58620879 7.83414331
O 0.43602005 6.81401689 3.42301195
Pu 3.94240901 1.06416653 6.90321599
O -3.54220991 -5.92669752 -2.73668562
O -8.87148438 -4.13619870 0.24184655
Pu 6.81140300 -2.48448314 2.00209043
O 1.23522277 3.50916918 2.64549771
O -0.83228846 6.89481916 -2.20665866
Pu 0.41119515 8.54610501 -2.56178826
O 5.11975140 8.26596266 0.78277833
O -5.80146796 -6.57691064 1.24842831
Pu -1.77626567 6.35058277 -8.06807677
O 4.16347087 6.45216160 0.42608893
O 4.00129757 2.05780530 -9.36926429
Pu 1.84141379 -7.35592459 4.51787456
O -4.11632110 2.60244012 2.31653185
O 1.71714058 9.26637009 -1.23701098
Pu 2.61756427 -4.60708488 6.03675954
O 2.99850035 -1.22279764 -9.86966793
O 0.35258910 -6.05151077 -8.48709392
Pu -8.52016610 4.60326764 4.97524038
O 9.42563127 0.74415084 2.06542351
O 4.39134317 -3.12281542 -7.08980066
Pu -0.96842092 -6.24143172 -3.62531877
O -8.64083267 6.68951389 4.02169460
O -7.15615429 5.37860928 -3.92856731
Pu 4.97663203 5.81457185 2.22266888
O 3.90191233 4.36519817 1.50004037
O -8.39012203 3.03740944 -5.47003330
Pu 10.72596523 2.77785865 -1.45111822
O 6.41929338 4.71571477 6.05022371
O -1.78280389 5.80661791 7.88519641
Pu 3.26181963 1.46121749 -0.81428954
O -0.36084436 -1.25162043 -5.96268612
O -5.55199816 -3.45625196 4.80330234
Pu -0.93833243 0.85339689 -5.62071785
O 3.32267674 5.39818924 3.71415079
O 2.92774345 7.06254756 -4.65819628
Pu -9.71503548 1.11802124 6.66649881
O -8.86013454 3.23736148 6.42965731
O 9.75181398 2.86305947 -3.45118897
Pu -8.96813990 3.56032761 1.32308503
O 5.02930431 5.66639181 -1.66534042
O -3.32866850 3.96533803 5.06991910
Pu -9.16418861 0.09303737 0.66090274
O -9.42971438 3.84539290 3.29064830
O 1.52578556 -8.58440143 -5.36429227
Pu -8.36580370 -5.15126569 -1.61179629
O -2.36603409 -0.46183572 -0.05531499
O 1.87274443 4.47172947 -8.84284641
Pu -1.69248210 -2.66015977 6.10140750
O 4.47642710 1.59740043 1.44323485
O -3.82459572 6.27623432 5.97469612
Pu -4.52926156 7.08571220 0.51514685
O -3.04684523 0.34693756 -5.82964027
O 6.14356077 4.72246159 3.52121721
Pu -0.42841342 8.15543070 4.53338203
O 0.58536853 3.67039235 9.22900622
O 7.51923289 2.21695750 2.79400418
Pu -5.58764130 -1.02940140 5.34474768
O 0.61270184 0.31209805 -10.58312191
O 4.51826998 3.00226560 -1.26820978
Pu 6.59511196 -1.24009479 -3.78106704
O 7.01721664 -5.04396070 -1.47439830
O -2.25233651 6.10514856 -6.03853091
Pu 1.95518263 -8.95691518 1.71220446
O 6.49969350 5.13282738 0.93982005
O 10.59440885 0.87107009 -2.16807745
Pu 9.13439971 2.98800985 1.58269912
O 6.39009343 -4.47742225 2.31466643
O -1.00490902 1.36901863 7.33034492
Pu -3.43911923 -1.21799293 -1.80464373
O -0.21908336 7.43902861 -6.95971851
O -0.54818236 -1.51743058 -11.39336354
Pu 1.38553624 6.60989435 -5.92646990
O -8.55710787 -5.10708816 -3.65642431
O -0.82649110 -11.56988695 -1.85778959
Pu 2.07705888 -2.42918396 -1.09383638
O -7.69404887 0.69982235 -0.79605935
O -4.22124726 -3.83868747 8.78445427
Pu 3.54547593 -9.38351135 -2.16954442
O 6.66260803 -4.27561934 -6.82905965
O -0.62991037 -4.49757647 -2.58287472
Pu 3.14804434 8.24421848 -0.07077690
O 7.99185496 0.14864467 -2.94397911
O 4.08508139 -5.69451092 -6.05624934
Pu 2.87677174 -7.02074072 -4.87349786
O -3.70107482 4.02402808 -4.94799986
O -9.85773830 -0.45617131 -1.16316376
Pu -3.16190603 7.46773664 -2.40323331
O -0.13251804 -5.11413942 1.90399564
O 4.83936781 4.81122291 -7.31702229
Pu 4.80161116 -7.50627984 0.51152941
O 0.84791094 1.71602248 -4.72777631
O -3.37330190 3.61418454 0.26007933
Pu -3.92400265 1.31777019 -3.97831788
O 1.69653115 -4.15168801 -11.18989850
O -5.67354905 -7.28523366 -1.70358988
Pu 6.77458836 -3.63858805 5.85797501
O -4.53057158 -2.01558459 -7.30438239
O 6.37810211 -1.83704998 6.31908901
Pu 6.43552898 6.40473869 7.31310700
O -1.11070910 4.92702613 0.97675810
O -8.14147703 1.41577097 7.93626710
Pu 7.61528552 3.18449375 6.82906246
O -2.26355785 -8.10560810 -3.78623232
O -2.30760129 -2.00063128 8.17721908
Pu 5.76141841 3.94254698 -2.59797419
O -10.08681650 1.99189494 0.85444532
O -1.19681567 -3.68687870 -6.36014252
Pu -0.46929135 -3.27719369 2.99075486
O 6.57581560 -1.33576768 3.68224779
O -4.24222830 5.79681480 -1.40622029
Pu 2.68789360 -2.23172629 2.38543556
O 3.52520229 8.82807663 6.27381388
O 4.75755680 -0.17431726 -3.50953905
Pu 2.93490605 2.20005465 3.09729960
O 1.83709769 -2.81031755 -6.38609705
O 7.70363968 1.72403889 8.08798677
Pu 1.03444640 -11.38544689 -1.07276998
O -7.64165738 1.93670636 2.16159516
O -0.02624204 -8.31913391 1.10728145
Pu -6.59341648 -8.09191248 -0.03680117
O -7.16410717 -0.48360273 -6.57633690
O 2.83985126 -3.56184617 1.01162402
Pu 6.39071626 -2.33107776 -7.26551364
O -4.81215446 -7.97304933 -4.86591237
O 0.20238889 -1.98183532 -1.10934801
Pu 5.94776485 -6.92715575 -2.51319452
O 6.68008813 -7.03069625 -0.17181993
O -7.95879693 -5.18726912 3.05875303
Pu 3.20261534 4.82751945 -0.40566295
O -9.74444727 -1.78352935 -3.46503447
O -5.54105322 -3.55462034 1.57278126
Pu 0.11559701 -7.48134182 -6.86958856
O 5.53222054 -2.28025466 0.54315176
O -5.45815483 1.07648910 5.25703991
Pu -4.95657923 -3.66872806 6.99851917
O -2.26443060 -5.97703298 -0.25826597
O 1.55489437 2.15660760 -8.30681146
Pu 5.93710013 3.08659410 2.04325661
O -6.41016110 -1.91638942 7.01817042
O 4.80420155 7.41117633 3.34542260
Pu -3.14620088 1.59072163 0.35428941
O 1.12770753 4.68366221 -0.50367620
O -0.22963751 -3.08775754 0.86653303
Pu 8.16656254 0.35723136 3.66580793
O 4.62671940 2.87386872 3.80919706
O -0.47811674 6.29026711 -4.64650328
Pu -4.27057812 -5.51308982 -0.30072686
O 1.49706642 -3.61190416 3.44709187
O -6.63933303 4.29401880 -2.01772179
Pu -1.66630900 -0.17094948 8.38183481
O -6.29553814 -0.77896947 3.46007919
O 8.48441110 0.17094433 5.62884212
Pu 1.96635794 -0.75343762 -7.10617411
O 6.90995665 0.14251003 -5.10367124
O 2.38180577 -9.13588937 3.64755785
Pu 8.03099220 2.01306950 -4.43454359
O -3.48742140 -5.84996218 1.91476329
O -0.27674000 5.42233077 -8.99980638
Pu 2.90399600 7.06513760 6.94919446
O 5.12252318 -0.24817284 7.87797033
O -0.86231755 -1.11757188 2.72483911
Pu 8.48428586 -4.15667196 -2.88879493
O -2.49965516 5.36290171 -2.95739482
O -2.47063731 1.08812263 -2.35680686
Pu -5.25515305 4.77730704 5.61398517
O -6.14907402 -5.32914050 6.53058238
O 1.80915343 6.99605774 0.82875215
Pu 5.49519950 -4.53165488 -5.07324543
O -0.17835177 -1.34607362 5.88227810
O 0.41185905 -0.40972511 8.56570569
Pu 4.19546841 6.96997229 -3.21410021
O -2.64949724 3.49172327 7.22967567
O -6.26818943 -5.13236726 -0.59344795
Pu 2.26402925 0.95336298 -9.69354704
O 1.26841588 -1.00784194 1.32752745
O -7.32219118 1.22633504 -3.02978571
Pu -0.53856040 -2.60108373 -3.87195207
O 6.56668061 8.17226697 6.16807446
O 8.92580954 4.69052253 2.70313829
Pu 7.98221650 4.83311857 4.39525867
O 10.67958767 -1.70803385 -0.74839941
O -2.32179837 1.61905467 9.49294426
Pu 1.91842346 -5.45048224 1.27946917
O 0.38068672 -6.40585697 -0.29550917
O -9.93777052 -0.79768776 7.11832238
Pu -6.96359272 2.85841572 7.40135193
O 8.44310770 5.22999614 6.53560745
O 1.48112810 1.70057280 -2.00079020
Pu 9.74716835 -0.84683309 -2.35851299
O 1.55292858 -2.32602853 -3.37715233
O -4.55344326 0.31241933 1.20738437
Pu -7.08810375 -1.22814694 -1.94073162
O -4.88069754 -0.92195315 -3.39081158
O -1.72404196 3.25919404 -6.27769123
Pu -5.68459894 -1.52877003 1.28364740
O 4.68979005 -5.87655614 -1.21808751
O 8.25439399 2.79933985 4.97747803
Pu -9.41599972 0.34301740 -3.01377221
O 9.30234220 -5.20624536 -1.29954704
O 3.15808385 -0.60772798 -1.29154912
Pu -6.95536972 6.58762877 2.89823581
O -1.65134756 8.88326976 -3.46599268
O 2.51334237 -7.71730718 -2.07241581
Pu -2.27699081 -3.91993225 9.18773665
O -3.52555262 8.58897181 4.92272452
O 4.59245245 8.14381704 -1.69843680
Pu -8.21030962 -3.08808890 -4.08525659
O 10.98053750 3.15149371 0.77434013
O -9.20886236 1.35747150 4.84815060
Pu 3.35896531 3.55710759 -8.08407993
O -0.97231271 -5.87638541 8.00254515
O -2.86040505 -6.74785022 4.03796438
Pu -8.58165439 4.03285574 -3.36040109
O 2.68221676 -7.07033797 0.13201621
O 8.47317117 -1.50846762 2.65980404
Pu 1.47960512 -2.22424595 -10.90589329
O -4.31542026 6.90401451 -4.17729493
O -8.29409577 -3.53512370 5.15745704
Pu -1.38359621 3.17447646 8.84567290
O -4.29600248 -8.04548312 0.17016904
O -2.01033353 -1.92176269 -8.17672486
Pu -2.34232437 4.89422457 -0.97761060
O -1.41966679 8.51528260 2.67502953
O 4.48352631 3.55496077 -4.35147823
Pu -3.73044980 1.97866489 6.20992444
O -4.15592567 -3.70701508 -1.38465161
O -0.85564450 -0.45620205 -3.47472198
Pu -1.23150680 -6.82929511 2.18068120
O -1.68585914 -4.37379507 4.59096371
O -7.70251971 -0.30302461 5.49604888
Pu -0.17353190 2.13312250 5.64031056
O 0.49080332 -4.15210609 5.68966920
O 4.91744535 -7.62600646 2.47497435
Pu 3.30217113 -1.36564550 -4.09653844
O -6.82366203 3.07089036 5.25312049
O -5.40903016 -1.30202899 -1.04927429
Pu 6.97766977 -0.10428816 7.05200412
O -3.94084689 5.72251925 2.08474113
O 4.35919571 -5.72575597 -3.59013400
Pu -7.30501606 1.26733197 4.06651634
O 0.95436689 1.40736190 3.94385824
O 6.02241540 -0.41631363 -7.58843557
Pu -8.41164186 -1.98151827 6.38723446
O -8.89674734 4.50585610 -1.44894781
O 8.28773722 -3.59966200 1.01317061
Pu 2.68743564 -5.61842805 -1.92107105
O 10.68430906 -2.85481412 2.23820072
O 6.71464012 -2.73941589 -5.17672114
Pu -1.47233094 8.17724104 -5.31559496
O 7.07353799 -2.61661579 -2.25244899
O -9.50111250 2.32046740 -3.31815182
Pu -3.81483311 6.79296984 3.88385748
O -1.67454392 7.25298511 5.86000432
O -0.52554978 -3.27577784 -9.81476904
Pu -5.64231480 -1.40683210 -5.44880595
O 3.41375929 -0.40992451 -5.89453553
O -3.34212934 0.15294988 7.08008801
Pu -2.95193533 -9.48687325 0.21100769
O -3.76485084 5.55091322 -7.70609431
O -7.41061940 -3.24408669 -2.16580510
Pu -4.25314099 -7.90323106 -2.90573422
O 1.53444770 -4.37159963 -0.81893546
O -2.24088340 6.69111770 -0.02337066
Pu -5.88029467 3.59388043 2.04041311
O -0.27312139 -7.97477854 -2.85628213
O -5.75013057 6.61273659 4.54142350
Pu 7.95797810 -5.62302838 0.41596367
O 3.61975485 2.57583303 -6.26455204
O -3.33039603 9.62866645 7.23303904
Pu -0.49014544 1.72356612 -2.46744594
O -2.79604028 -3.46304775 2.59933782
O 3.15057445 -1.14231533 5.92389473
Pu 4.98339424 8.47253756 4.91943849
O -7.15915665 4.44462771 3.36763340
O -3.61566840 8.43929718 -0.75967196
Pu -2.83003094 4.06803943 2.94005433
O 1.60067791 -7.03895382 2.45292764
O -7.68396303 -1.30125175 0.62619503
Pu -7.13133700 1.60146773 -5.89493784
O 7.10149008 3.78220552 -4.24888369
O -5.87188056 -9.24624072 1.61321662
Pu -7.21089882 -4.83205388 1.30681190
O -2.21378875 0.79465939 -8.84368464
O 6.86898572 -5.40970074 -3.93050630
Pu -1.23095705 -9.81239446 -3.15126234
O 2.72438818 5.08097304 6.31409857
O 0.18219849 0.37518069 -7.32468584
Pu 0.46730586 -8.25158638 -0.92230623
O 3.61386710 -3.53214277 -1.98646072
O 6.07650367 -5.20250948 5.01475050
Pu 0.71330932 5.55898416 -2.59742030
O 8.80002445 -5.87057337 2.34822819
O -0.25804736 1.13205993 0.63317969
Pu -2.87491640 10.38807721 5.27656375
O -1.80204966 -8.30688349 -6.97061228
O -2.57881045 -2.64357280 -3.07512614
Pu 6.14738257 7.02849895 -0.49130527
O 3.17381053 0.56796421 -7.84349142
O -3.05856131 8.14968801 -6.80412709
Pu -0.46742624 -1.00019549 0.38111509
O -2.82335501 -8.46968190 2.12569253
O -0.28598813 -6.95797541 4.16054446
Pu 5.79083186 4.19425688 -5.75318076
O -0.90248609 3.44802189 -1.46086053
O -4.84304831 4.49734532 3.74419561
Pu -0.74106508 -4.48330262 -0.48434588
O 6.19541233 2.20700400 -5.95628665
O -1.99386002 6.25684292 3.22935943
Pu 4.81575952 -1.29019432 4.49846900
O -4.12438281 -2.93734091 -5.13891869
O -7.07549099 3.35763467 0.25081171
Pu -4.60811164 6.72996546 -6.20083997
O 3.44041166 3.18344900 7.13155420
O 1.06215762 6.91847803 5.70227259
Pu -7.09505982 -5.06088661 4.86444704
O 4.39824362 -8.26171067 -3.77719969
O -7.65440097 -1.10566467 -3.92227267
Pu 1.37085512 -1.56853359 7.21376507
O -5.51478859 4.86241485 -6.33467247
O 1.50737693 -5.89378687 -3.61176819
Pu -1.66311051 4.54425643 -4.83036557
O -8.28282206 -6.88738917 -0.46850434
O 2.68303499 5.04860449 -2.60466522
Pu -6.31526912 2.23872486 -1.38248920
O 7.79396695 7.80532962 -1.25418153
O -2.88498178 -4.58064405 6.65752600
Pu -4.61323366 -7.68557317 2.58014108
O -1.36262419 -9.21270228 -0.99824350
O -0.50898839 -3.43106204 7.73339000
Pu 9.96372950 -1.27237959 1.06114373
O 5.49729889 0.33154717 5.39025377
O -3.50435920 -9.60292888 -1.84125011
Pu 2.80603478 -4.37338464 -7.17249160
O -5.00186847 2.81005787 -3.08381160
O 5.31442023 -8.56874043 -1.37485432
Pu -4.46517558 -4.25889306 -3.62700536
O 1.51009770 -3.84500930 -8.75084229
O 8.39202268 -3.53881464 4.82529866
Pu 4.52575832 4.21744168 5.31314327
O 0.55481542 4.23132906 -4.37154351
O 3.30407718 -5.82410074 4.71907654
Pu -3.71601562 -4.86474204 3.70603507
O 6.98411566 2.51425391 0.47601689
O 3.25615031 -9.21950113 0.17979005
Pu -0.06865617 -2.83619811 -7.72357266
O -0.73562551 9.95779146 5.25769783
O -6.13953185 5.60778769 1.15557737
Pu 7.49711150 1.16083771 -0.95480053
O -0.39726366 -4.31344258 9.90200642
O 8.38851519 -0.60676087 -0.46882965
Pu 0.94881007 -4.99426304 8.41385503
O -3.26381881 -5.85772182 -7.88992320
O -3.74053007 -2.19655637 5.70249280
Pu -0.96524752 0.85633532 3.08188974
O -1.88753087 2.46100465 -4.12527746
O 2.17968913 -3.33992940 7.55523729
Pu 9.48440750 -4.19048727 3.08142718
O -1.04886492 4.21783444 4.10115834
O 4.73308036 6.44039832 5.93466279
Pu -3.21151750 -3.87817843 -6.98065361
O 1.69467609 4.48666011 -6.48221085
O 0.95847870 -9.87023755 -2.26558146
Pu -1.01628942 -0.45276964 -9.77166556
O -1.20207981 -6.55305743 -5.58121256
O 9.05179366 2.41791818 -0.59596568
