420
ML-kMC step 6000
Pu 1.45911086 5.21115762 3.97396863
O 1.74959465 1.49919649 6.55363815
O 4.88641939 -2.79493161 -3.75361295
Pu 2.29945452 3.20755102 -4.81379497
O -5.16451935 7.68020936 2.41849074
O 9.05192513 -2.37590341 -3.50932809
Pu -7.46935204 5.62421177 -0.58271730
O 3.13250807 -11.11856123 -1.86375888
O -6.21472720 -3.39597327 -4.65626140
Pu -3.81323795 3.48502592 -7.02954899
O 0.96208538 -5.98797374 6.06450949
O 4.49332432 6.67121754 8.08864261
Pu 4.99820803 -5.64020143 3.40730672
O 2.28958378 2.72745730 0.56411375
O 5.47423830 5.63620156 -4.18274943
Pu -1.64501870 4.96055608 5.89994456
O -5.38782030 0.80547479 -4.89567924
O -4.44697781 1.22554294 -1.35945201
Pu -5.11473631 4.88595921 -3.39856026
O 6.77142748 2.25634401 -2.42047285
O 3.40247682 -0.56063543 3.18913357
Pu 1.79113777 3.91473265 7.26983017
O -4.71950425 1.60215281 -7.41549978
O -6.22721657 7.34471990 -0.68687968
Pu 0.20785182 -5.09250735 -10.10477630
O 1.94613871 6.91776898 -2.13582007
O -4.96153461 3.23372334 7.20584143
Pu 5.51150335 -3.57194011 -1.15567821
O -1.65481804 2.43313260 1.88117891
O -0.29458820 3.70404286 7.05328322
Pu -0.54283887 6.80945187 1.42721070
O 4.00449194 -5.55886415 1.70804384
O 0.79083298 3.82203898 5.23024824
Pu -3.59765709 -0.25910881 -7.73635271
O 1.52944917 -6.06374019 -6.32460875
O 0.62904944 8.29486239 -4.52815621
Pu 0.21346566 3.28773245 0.71139613
O -2.09625912 4.12435682 -8.11954961
O 4.45710606 -3.30258366 3.96845497
Pu -0.08016501 3.34007372 -8.22500766
O -6.91388106 4.75126401 6.66139511
O 0.80048430 -1.25578904 -8.75859307
Pu -3.47626475 -7.20218251 -6.17114566
O -3.79956739 -5.38664206 -5.28510490
O -5.29814170 -5.93144871 3.73238822
Pu -1.29865338 -5.81904789 5.89885687
O 5.65130507 2.51930027 6.52482567
O 1.10635366 -10.66182566 0.63856290
Pu -3.04841263 7.44735014 7.31440594
O -2.00462406 1.58373958 4.75018350
O -8.35157618 5.56605537 1.23512813
Pu 4.97743365 0.83382029 -6.71200355
O 2.83986961 -5.52484602 7.72905067
O 0.55136821 6.84143465 3.16484578
Pu 3.84489845 1.11650721 6.79656919
O -3.55070548 -5.90535725 -2.76455520
O -8.71838250 -4.22760970 0.20479462
Pu 6.70845454 -2.45438077 1.90095291
O 1.17756192 3.46535316 2.67900762
O -0.83228846 6.89481916 -2.20665866
Pu 0.41119515 8.54610501 -2.56178826
O 5.12752114 8.34869983 0.75584197
O -5.75872043 -6.43850035 1.10125474
Pu -1.84030751 6.26531021 -8.10665315
O 4.13683923 6.44354588 0.37658197
O 4.00876282 2.22479827 -9.42126570
Pu 1.72066370 -7.35213714 4.75545610
O -4.11632110 2.60244012 2.31653185
O 1.75828064 9.38339467 -1.28321179
Pu 2.63250304 -4.42112943 5.79724100
O 3.02437536 -1.20120274 -9.52521267
O 0.26295781 -6.03406163 -8.41407291
Pu -8.59965431 4.49771870 4.85888497
O 9.24571391 0.90266386 1.97583144
O 4.39134317 -3.12281542 -7.08980066
Pu -0.97020815 -6.23870451 -3.62608849
O -8.45302724 6.52895802 4.14991861
O -7.10635329 5.51175291 -3.82611646
Pu 4.97663203 5.81457185 2.22266888
O 3.90191233 4.36519817 1.50004037
O -8.00918602 3.12084135 -5.13679710
Pu 10.50068699 2.96736743 -1.81876837
O 6.37817560 4.68520455 6.01124252
O -1.92488472 5.63044177 7.94274191
Pu 3.26181963 1.46121749 -0.81428954
O -0.20878907 -1.39690171 -5.85118594
O -5.36342391 -3.53236365 4.77696629
Pu -0.93833243 0.85339689 -5.62071785
O 3.42615745 5.34761579 3.74953367
O 2.98723098 6.89280303 -4.74436034
Pu -9.68827563 1.19826937 6.49347335
O -9.10912378 3.23352789 6.72609657
O 9.91624034 2.69985580 -3.72735579
Pu -8.90790788 3.46926426 1.40576482
O 4.92877925 5.52879641 -1.64357688
O -3.21541287 3.93880912 5.03821691
Pu -8.98532088 0.20080733 0.62567470
O -9.71188856 3.77837970 3.34736052
O 1.61941273 -8.53397958 -5.78851711
Pu -8.23628566 -5.20779193 -1.68688730
O -2.30218239 -0.38813942 -0.05463723
O 1.62906517 4.01741606 -9.23039485
Pu -1.68645990 -2.63900572 6.06286315
O 4.15251818 1.41582882 1.32833222
O -3.79014460 6.10545463 5.99786566
Pu -4.44442405 7.25918307 0.44548632
O -3.01946855 0.32366876 -5.81220052
O 6.12953310 4.59055222 3.52896477
Pu -0.34761598 7.98530555 4.42799321
O 0.67803993 3.93540162 9.12039177
O 7.44516676 2.15318824 2.93167527
Pu -5.27000693 -0.99001170 5.26207872
O 0.65753185 0.33195156 -10.46576564
O 4.51631357 3.02045579 -1.25851671
Pu 6.58184903 -1.25590990 -3.77661786
O 6.91025765 -4.94248183 -1.55270360
O -2.37032597 6.02507764 -5.95387051
Pu 1.97732450 -9.08521109 1.98320132
O 6.30472616 5.01784905 0.96958828
O 10.33540528 0.98683130 -2.18772201
Pu 9.15795236 2.94542799 1.52333196
O 6.62618590 -4.56552725 2.31577049
O -1.27633331 1.54365227 7.19928598
Pu -3.43911923 -1.21799293 -1.80464373
O -0.25956169 7.41392453 -6.99122503
O -0.65465416 -1.55431273 -11.34133617
Pu 1.39553352 6.54947263 -6.01622126
O -8.67712809 -4.85036491 -3.70218210
O -0.74526234 -11.61353448 -2.19308311
Pu 2.16941088 -2.32793064 -1.10901898
O -7.67011402 0.80321374 -0.94757025
O -4.14141463 -3.78980249 8.99666931
Pu 3.61407393 -9.21907009 -2.08990738
O 6.43212021 -4.48264529 -6.93258273
O -0.70029432 -4.51430676 -2.57400145
Pu 3.12479722 8.28933487 -0.04502055
O 7.92576766 0.13414283 -2.90701289
O 4.09966010 -5.78173782 -5.95150426
Pu 2.87677174 -7.02074072 -4.87349786
O -3.78879146 3.90768344 -4.86438200
O -9.72133537 -0.49959268 -1.20036408
Pu -3.10569910 7.37962006 -2.30411191
O -0.01971051 -5.10923532 1.86935430
O 4.85677327 4.81770020 -7.37027507
Pu 4.73481030 -7.44288934 0.60359626
O 0.81685287 1.68590028 -4.55413248
O -3.56414398 3.51678886 0.03266717
Pu -3.77205465 1.29997752 -3.72570631
O 1.42950336 -4.06048514 -11.35227982
O -6.06306320 -7.29208664 -1.77842169
Pu 6.80959666 -3.68720308 5.90675312
O -4.58158825 -2.11145039 -7.38737117
O 6.00921582 -1.96286353 6.21505027
Pu 6.51461024 6.52314259 7.30221353
O -1.16421114 4.64855937 0.93495636
O -8.01207481 1.23289549 7.77622637
Pu 7.66681088 3.32077956 6.88373951
O -2.21918649 -8.10090551 -3.98089194
O -2.28645732 -1.99471808 7.98907993
Pu 5.74871488 3.91364965 -2.64198208
O -9.97251105 1.84375127 1.06570630
O -1.18454900 -3.79079329 -6.18639191
Pu -0.48909728 -3.40428946 3.01885940
O 6.56774650 -1.35764305 3.56269169
O -4.24222830 5.79681480 -1.40622029
Pu 2.50985639 -2.13462572 2.33705080
O 3.49930595 8.82118581 6.06557178
O 4.99196908 -0.08772566 -3.47644629
Pu 2.66860752 1.93469338 2.77258219
O 1.86886412 -2.79888914 -6.40554943
O 7.99182176 1.55813054 7.87322942
Pu 1.14178289 -11.50496567 -1.13991119
O -7.56585345 1.90466157 2.06374421
O -0.17256824 -8.26614357 1.23590288
Pu -6.47298295 -8.13445422 -0.07554998
O -7.06331524 -0.34676264 -6.31091821
O 2.82496494 -3.41422728 0.91110247
Pu 6.29997368 -2.54575950 -7.40384989
O -4.43784266 -8.41160946 -4.91542240
O 0.03316301 -2.23479804 -1.17674240
Pu 6.04091088 -6.80166914 -2.45147931
O 6.52736642 -6.86961108 -0.23102589
O -7.85969690 -5.51515419 3.03814452
Pu 3.20261534 4.82751945 -0.40566295
O -9.58382692 -1.56259317 -3.66053049
O -5.52945227 -3.64256186 1.49237303
Pu 0.11559701 -7.48134182 -6.86958856
O 5.33859534 -2.35358739 0.41047973
O -5.29726607 1.15507775 5.12883102
Pu -4.95694223 -3.66835844 6.99694096
O -2.15006655 -5.93632362 -0.24792830
O 1.59183033 2.23091067 -7.77920330
Pu 5.75959870 3.02263498 2.01690203
O -6.29451803 -2.12647944 6.85155126
O 4.88467864 7.51934167 3.37517008
Pu -3.14620088 1.59072163 0.35428941
O 1.11266221 4.72844167 -0.46981654
O -0.22852188 -3.01236096 0.98037464
Pu 8.08674708 0.40433369 3.70091438
O 4.52383794 2.80852469 3.73224054
O -0.40542057 6.15539009 -4.59268464
Pu -4.28706286 -5.36559913 -0.24697356
O 1.49706642 -3.61190416 3.44709187
O -6.63065703 4.28823432 -2.01347176
Pu -1.67933264 -0.14948912 8.30568998
O -6.36410202 -0.65327027 3.44970952
O 8.27217320 -0.07581965 5.54877734
Pu 1.95043682 -0.75457076 -7.10051421
O 6.82275740 0.39524336 -5.02301892
O 2.21705602 -9.06745249 3.95679525
Pu 8.06494741 1.83001957 -4.48397740
O -3.40067992 -5.83994095 1.86069738
O -0.21554405 5.31979893 -8.84855964
Pu 2.76472662 7.03329195 6.89683281
O 4.97787514 -0.01754785 8.05487164
O -0.67556723 -1.11721642 2.70189918
Pu 8.53064986 -4.22274676 -2.73376166
O -2.55243817 5.43054665 -3.13960221
O -2.37120911 0.83464025 -2.21854288
Pu -5.24056713 4.77751400 5.59488493
O -6.02925064 -5.23368213 6.61676889
O 1.70877075 6.94230091 0.81204073
Pu 5.55747604 -4.57627685 -5.02445192
O -0.18167778 -1.29765389 5.90903118
O 0.35616932 -0.37430305 8.52026131
Pu 4.24075547 6.91028989 -3.25470777
O -2.65725409 3.49661930 7.14812143
O -6.40321433 -5.16186047 -0.68645159
Pu 2.42683364 0.89491284 -9.70753718
O 1.67853613 -1.07392332 0.82178057
O -7.49713824 1.35189927 -3.18367772
Pu -0.53856040 -2.60108373 -3.87195207
O 6.62506731 8.17168944 6.18393307
O 8.96274013 4.68734402 2.63062261
Pu 7.96475759 4.80658138 4.38356439
O 10.58680557 -1.66195354 -0.81378734
O -2.22905735 1.55909381 9.37652702
Pu 1.91842346 -5.45048224 1.27946917
O 0.41277729 -6.33358632 -0.17294456
O -9.74951772 -0.78638021 7.01335026
Pu -6.87892067 2.78447312 7.43489689
O 8.32625507 5.47200470 6.29036096
O 1.56412350 1.74521414 -2.04234449
Pu 9.54087231 -0.85002103 -2.23073747
O 1.70378324 -2.21319836 -3.23478450
O -4.44727815 0.12571546 1.40964334
Pu -7.08810375 -1.22814694 -1.94073162
O -4.85830418 -0.73860644 -3.33803576
O -1.41571430 3.02462441 -6.30250694
Pu -5.75993699 -1.60166689 1.32363327
O 4.76708808 -5.75062269 -0.95709691
O 8.56797338 3.00283595 4.95080196
Pu -9.51121759 0.44387310 -3.06932886
O 9.31940228 -5.21532845 -1.04165041
O 3.27285316 -0.53324905 -1.53312551
Pu -7.05002295 6.57153068 2.79113828
O -1.56997960 8.68562426 -3.47028041
O 2.34724373 -7.66492201 -2.13696953
Pu -2.15905337 -3.97395555 9.10007104
O -3.41922932 8.48504749 4.94319481
O 4.55939169 8.06979749 -1.63792264
Pu -8.29593089 -3.05483336 -4.40711645
O 10.93365758 2.67731204 0.36797315
O -9.11298011 1.30816891 4.57668298
Pu 3.39973059 3.63717600 -8.10174221
O -0.99678279 -5.68031289 7.94865440
O -2.84265688 -6.54429820 3.96792468
Pu -8.58165439 4.03285574 -3.36040109
O 2.71914199 -7.07775096 0.06057378
O 8.47832595 -1.51525499 2.46458842
Pu 1.44842897 -2.21756949 -10.56711547
O -4.29010828 6.87709470 -3.92589114
O -8.02378822 -3.37889169 4.87497858
Pu -1.49731664 3.39025058 8.77894121
O -4.29812619 -7.69164938 -0.14471536
O -2.10137376 -1.73659642 -8.22199128
Pu -2.40157519 4.87605243 -1.01657427
O -1.40946276 8.45422824 2.65565896
O 4.34744170 3.54146185 -4.31682867
Pu -3.60094128 1.88301793 6.16588689
O -4.16982688 -3.63258941 -1.44984702
O -0.69896529 -0.29293221 -3.43004880
Pu -1.21517226 -6.87850529 2.32790100
O -1.68730303 -4.18428931 4.57211382
O -7.49211574 -0.23563582 5.48400191
Pu -0.17353190 2.13312250 5.64031056
O 0.34484397 -3.90128548 5.46369134
O 4.97886972 -7.57172950 2.64060403
Pu 3.30217113 -1.36564550 -4.09653844
O -6.84167253 2.90700627 5.21156880
O -5.33299233 -1.32119780 -0.85615264
Pu 6.92364798 -0.08841504 7.13295916
O -3.88509259 5.73288785 2.00919845
O 4.11027110 -5.55181639 -3.38975509
Pu -6.98251651 1.36031424 3.92034988
O 0.93166100 1.20891195 3.81768192
O 5.94706405 -0.60092443 -7.59739431
Pu -8.22975001 -1.88383847 6.25209167
O -9.08439328 4.50724622 -1.32206402
O 8.24585009 -3.54885833 0.98526677
Pu 2.70306815 -5.69372806 -1.76038615
O 10.73295170 -2.87195401 2.43160683
O 6.75045326 -2.70738414 -5.41160120
Pu -1.42637261 8.04870159 -5.26987973
O 7.13319528 -2.59030765 -2.20653354
O -9.90502232 2.41748098 -3.22165644
Pu -3.81483311 6.79296984 3.88385748
O -1.69210559 7.04513926 5.84484715
O -0.42130710 -3.20154484 -9.64954669
Pu -5.60925920 -1.40515936 -5.26674887
O 3.41360069 -0.47448124 -5.84149141
O -3.50874791 -0.05123617 6.81962915
Pu -2.74390967 -9.18055622 0.28852792
O -3.84588753 5.83000318 -7.80622756
O -7.36780563 -3.21348840 -2.09934981
Pu -4.06252276 -7.78490570 -2.89095908
O 1.43162131 -4.39454199 -0.75673166
O -2.24088340 6.69111770 -0.02337066
Pu -5.87318426 3.73773154 1.92297468
O -0.27472562 -7.87396376 -2.81885702
O -5.78616928 6.48582948 4.50162781
Pu 7.89671131 -5.54468137 0.43366707
O 3.76407559 2.67038480 -6.28105137
O -3.30152192 9.71376485 7.21516835
Pu -0.44596780 1.67240250 -2.50267141
O -2.54646614 -3.30694500 2.62685253
O 3.04347167 -0.99842186 6.10533075
Pu 5.19433979 8.49922301 4.97345088
O -7.23884540 4.29095583 3.29609988
O -3.67171769 8.62423984 -0.73753192
Pu -2.83003094 4.06803943 2.94005433
O 1.57683992 -7.04175092 2.50328720
O -7.55361333 -1.26254236 0.41437058
Pu -6.99561237 1.57807743 -5.75346455
O 7.26804309 3.78169397 -4.27521552
O -5.50491680 -9.05045542 1.52349569
Pu -7.20936930 -4.78607423 1.28220025
O -2.23437242 1.01981034 -8.75627710
O 7.09112542 -5.51041724 -3.84655285
Pu -1.22376164 -9.73084517 -3.09050407
O 2.71402000 5.30348631 6.06118959
O 0.05101482 0.41432512 -7.31918376
Pu 0.46730586 -8.25158638 -0.92230623
O 3.56575624 -3.67221395 -1.83182568
O 6.04588939 -5.17835195 4.94843486
Pu 0.77833235 5.36687997 -2.63552061
O 8.83953703 -5.93339960 2.22654740
O -0.26572068 1.16183432 0.55529650
Pu -2.87491640 10.38807721 5.27656375
O -1.78283689 -8.19710038 -7.08772492
O -2.63156555 -2.49982921 -3.06022705
Pu 6.02656639 6.91295105 -0.49012055
O 3.19798322 0.57952508 -7.84518854
O -3.11684666 8.12346122 -6.39166246
Pu -0.43056190 -0.98452797 0.35881182
O -2.68879152 -8.49094982 2.19344446
O -0.34788815 -6.93571259 4.30980590
Pu 5.75638736 4.16579270 -5.71517509
O -0.76246190 3.41138411 -1.42252842
O -4.81429286 4.51581766 3.60203538
Pu -0.69039993 -4.51433267 -0.45859759
O 6.58087457 2.43051155 -6.29007861
O -1.89854871 6.20209598 3.30286504
Pu 4.81522338 -1.29014944 4.49615662
O -3.79736852 -2.76272237 -5.12807634
O -7.04229479 3.46329330 0.27744083
Pu -4.55763162 6.69601900 -5.91996107
O 3.51003396 3.16160768 6.93850690
O 0.93458873 6.96619548 5.81757076
Pu -7.01484136 -5.00360750 4.81035961
O 4.30318273 -7.95586014 -3.56479824
O -7.45293440 -1.22480804 -4.03632995
Pu 1.38935163 -1.58751054 7.22694600
O -5.38410181 4.64760205 -6.12757651
O 1.36442045 -5.86805375 -3.73306282
Pu -1.73305566 4.54096576 -4.75587367
O -8.10169152 -7.10159868 -0.33751488
O 2.76639326 4.85527694 -2.67076935
Pu -6.38535009 2.21306408 -1.43898241
O 7.76116477 7.28020592 -1.30521914
O -2.91880086 -4.42466363 6.64170234
Pu -4.62777661 -7.50541587 2.54400582
O -1.27975406 -9.06060871 -0.97988605
O -0.41680161 -3.39142590 7.68635113
Pu 10.01346476 -1.30300216 1.22918990
O 5.55901970 0.36045201 5.35486287
O -3.37049165 -9.51344359 -1.82851817
Pu 2.84709828 -4.55187378 -7.14699934
O -5.14001818 2.81109280 -3.11474492
O 5.30384446 -8.33655331 -1.38920089
Pu -4.44212354 -4.15833859 -3.64378046
O 1.62580303 -3.69575011 -8.69914706
O 8.58201830 -3.52960237 4.75487315
Pu 4.53730874 4.22412503 5.41302904
O 0.55287483 4.19479095 -4.28117673
O 3.34323231 -5.92761576 4.64768654
Pu -3.76824134 -4.49232401 3.62056188
O 7.01620409 2.37257317 0.66955652
O 3.20097179 -9.34421086 0.21049456
Pu -0.05394234 -2.72670289 -7.67399328
O -0.98682648 9.84702575 5.08693901
O -6.13906007 5.63582575 1.04952978
Pu 7.47084104 1.13752742 -0.85899390
O -0.34573176 -4.17389812 9.94101707
O 8.39319205 -0.65644550 -0.39626346
Pu 0.94257752 -4.86733511 8.43738683
O -3.54523047 -5.67361769 -7.82128776
O -3.74053007 -2.19655637 5.70249280
Pu -0.96524752 0.85633532 3.08188974
O -1.88753087 2.46100465 -4.12527746
O 2.30019316 -3.26704613 7.43761275
Pu 9.40820865 -4.19950617 3.06417291
O -0.92321289 4.15840115 4.10525713
O 4.86426012 6.24165285 5.77635468
Pu -3.18193839 -3.85898169 -6.93796297
O 1.74650363 4.56494654 -6.41235222
O 1.06283808 -9.70018007 -2.14838137
Pu -1.04756463 -0.36318601 -9.67820500
O -1.24689116 -6.60826339 -5.58709238
O 8.88131256 2.81958583 -0.63719253
