420
ML-kMC step 6500
Pu 1.45911086 5.21115762 3.97396863
O 1.74959465 1.49919649 6.55363815
O 4.90384543 -2.79428618 -3.74851331
Pu 2.29945452 3.20755102 -4.81379497
O -5.20631798 7.77344409 2.41361356
O 8.98126671 -2.34638884 -3.48266332
Pu -7.46935204 5.62421177 -0.58271730
O 3.17607859 -11.19348592 -1.85083123
O -6.21472720 -3.39597327 -4.65626140
Pu -3.81323795 3.48502592 -7.02954899
O 0.96191678 -5.98737713 6.06410952
O 4.47808983 6.59184062 7.99424897
Pu 4.98919861 -5.62063437 3.39349616
O 2.28958378 2.72745730 0.56411375
O 5.47423830 5.63620156 -4.18274943
Pu -1.64501870 4.96055608 5.89994456
O -5.38782030 0.80547479 -4.89567924
O -4.44697781 1.22554294 -1.35945201
Pu -5.11473631 4.88595921 -3.39856026
O 6.82226231 2.26763364 -2.45815208
O 3.40247682 -0.56063543 3.18913357
Pu 1.72101806 3.89243132 7.39056009
O -4.66103403 1.58385806 -7.35930534
O -6.29625978 7.32709066 -0.65090189
Pu 0.20785182 -5.09250735 -10.10477630
O 1.94613871 6.91776898 -2.13582007
O -4.85199841 3.17729734 7.19284406
Pu 5.40976384 -3.70220227 -1.09477279
O -1.65481804 2.43313260 1.88117891
O -0.29458820 3.70404286 7.05328322
Pu -0.58634891 6.72307506 1.45510975
O 3.89869118 -5.61925018 1.73991899
O 0.84677029 3.85720814 5.28099755
Pu -3.59765709 -0.25910881 -7.73635271
O 1.66589917 -6.06973023 -6.31174339
O 0.61013085 8.25674595 -4.52421991
Pu 0.21346566 3.28773245 0.71139613
O -2.09625912 4.12435682 -8.11954961
O 4.45710606 -3.30258366 3.96845497
Pu -0.10864653 3.28973140 -8.08361770
O -6.97200571 4.74567812 6.71425441
O 0.80048430 -1.25578904 -8.75859307
Pu -3.35745685 -7.18242301 -6.22423142
O -3.88382831 -5.33557920 -5.19547991
O -5.32460750 -5.87903979 3.80860022
Pu -1.27378603 -5.83615379 5.70309437
O 5.72611180 2.54571866 6.59337393
O 1.01625112 -10.27682817 0.58245465
Pu -3.04152374 7.47911455 7.34178995
O -1.98672860 1.48863072 4.64407351
O -8.14698162 5.50849597 1.32632488
Pu 4.95798057 0.89070838 -6.60221983
O 2.82876906 -5.47267035 7.77651665
O 0.55609205 6.73410048 3.13504322
Pu 3.84489845 1.11650721 6.79656919
O -3.55070548 -5.90535725 -2.76455520
O -8.73133646 -4.32071689 0.15257297
Pu 6.72735181 -2.43618541 1.89960470
O 1.17756192 3.46535316 2.67900762
O -0.82092587 6.80568783 -2.17837862
Pu 0.41103194 8.53437774 -2.56213604
O 5.12752114 8.34869983 0.75584197
O -5.93129114 -6.47811947 1.30806626
Pu -1.84030751 6.26531021 -8.10665315
O 4.17806261 6.43808362 0.44760462
O 3.99735776 2.22256691 -9.39923953
Pu 1.72066370 -7.35213714 4.75545610
O -4.11632110 2.60244012 2.31653185
O 1.76897348 9.29037989 -1.20067477
Pu 2.40509161 -4.32519786 5.72855700
O 2.98192226 -1.08285863 -9.82427502
O 0.21569038 -5.93811184 -8.37056098
Pu -8.55003326 4.45054217 4.84949594
O 9.34218932 0.64683241 1.97358789
O 4.23767314 -2.90416145 -7.10541981
Pu -0.98087348 -6.21952700 -3.62941945
O -8.45302724 6.52895802 4.14991861
O -6.85888382 5.92269992 -3.82538832
Pu 4.97663203 5.81457185 2.22266888
O 3.90020277 4.36599434 1.49664294
O -8.06471034 3.14623277 -5.16639003
Pu 10.44666379 3.02191197 -1.89462250
O 6.44598731 4.77718698 6.01639671
O -1.85444969 5.63570633 8.10009607
Pu 3.26181963 1.46121749 -0.81428954
O -0.24996006 -1.34608100 -6.01677912
O -5.36342391 -3.53236365 4.77696629
Pu -0.93833243 0.85339689 -5.62071785
O 3.42615745 5.34761579 3.74953367
O 2.98723098 6.89280303 -4.74436034
Pu -9.62858941 1.12612678 6.39053636
O -8.92338421 2.97558545 6.58987200
O 9.72377085 2.79440146 -3.78404800
Pu -8.90790788 3.46926426 1.40576482
O 4.98305876 5.54853675 -1.64717291
O -3.21541287 3.93880912 5.03821691
Pu -8.98532088 0.20080733 0.62567470
O -9.79757018 3.87281055 3.34600311
O 1.62534456 -8.32570131 -5.72753549
Pu -8.23628566 -5.20779193 -1.68688730
O -2.30218239 -0.38813942 -0.05463723
O 1.61156108 3.78371351 -9.30635287
Pu -1.73482376 -2.77161523 6.04255448
O 4.15251818 1.41582882 1.32833222
O -3.82350405 6.15934370 5.97909030
Pu -4.43243129 7.14739384 0.47479562
O -3.01045757 0.32322271 -5.81097361
O 6.12953310 4.59055222 3.52896477
Pu -0.34761598 7.98530555 4.42799321
O 0.74808001 3.76478788 9.15187541
O 7.44516676 2.15318824 2.93167527
Pu -5.27000693 -0.99001170 5.26207872
O 0.65955507 0.33167846 -10.45818649
O 4.51631357 3.02045579 -1.25851671
Pu 6.58184903 -1.25590990 -3.77661786
O 6.91025765 -4.94248183 -1.55270360
O -2.37032597 6.02507764 -5.95387051
Pu 1.97732450 -9.08521109 1.98320132
O 6.30472616 5.01784905 0.96958828
O 10.35471166 0.90385453 -2.16192544
Pu 9.15795236 2.94542799 1.52333196
O 6.61739749 -4.49500571 2.21064084
O -1.48327950 1.46144401 7.12806424
Pu -3.43911923 -1.21799293 -1.80464373
O -0.32713810 7.26845712 -6.90539223
O -0.53158960 -1.59034787 -11.18727988
Pu 1.39553352 6.54947263 -6.01622126
O -8.81761340 -4.95697803 -3.70921098
O -0.49340735 -11.59549083 -2.10528025
Pu 2.16941088 -2.32793064 -1.10901898
O -7.67011402 0.80321374 -0.94757025
O -4.14141463 -3.78980249 8.99666931
Pu 3.61407393 -9.21907009 -2.08990738
O 6.43212021 -4.48264529 -6.93258273
O -0.75156017 -4.42325259 -2.78395998
Pu 3.12479722 8.28933487 -0.04502055
O 8.13795744 0.20314165 -2.81421777
O 4.06635583 -5.79142238 -6.06525266
Pu 2.87677174 -7.02074072 -4.87349786
O -3.67358624 3.81632691 -4.85750763
O -9.72133537 -0.49959268 -1.20036408
Pu -3.10151679 7.47086429 -2.30289305
O -0.16611876 -5.17565709 2.00025520
O 4.68586561 4.84338945 -7.15689700
Pu 4.73481030 -7.44288934 0.60359626
O 0.81685287 1.68590028 -4.55413248
O -3.56414398 3.51678886 0.03266717
Pu -3.79980570 1.21161912 -3.71108589
O 1.33920155 -4.01318910 -11.33181870
O -5.90823001 -7.40591259 -1.84194570
Pu 6.80959666 -3.68720308 5.90675312
O -4.59942285 -2.06584735 -7.38212769
O 5.99301065 -1.90168964 6.27530848
Pu 6.45473205 6.46319577 7.23480212
O -1.16421114 4.64855937 0.93495636
O -7.97421663 1.22709635 7.73940163
Pu 7.66681088 3.32077956 6.88373951
O -2.35746826 -8.14538739 -4.00795416
O -2.25412673 -2.07459698 7.93160121
Pu 5.87811347 4.01264813 -2.73326117
O -10.02441318 1.87695638 1.00585633
O -1.22622163 -3.69415987 -6.19940680
Pu -0.48909728 -3.40428946 3.01885940
O 6.56774650 -1.35764305 3.56269169
O -4.24222830 5.79681480 -1.40622029
Pu 2.50985639 -2.13462572 2.33705080
O 3.47917157 8.64797915 6.09490205
O 5.02909315 -0.08152070 -3.53263488
Pu 2.66860752 1.93469338 2.77258219
O 1.86886412 -2.79888914 -6.40554943
O 7.79836091 1.64752756 7.85600879
Pu 1.37097373 -11.57590932 -1.06184799
O -7.56585345 1.90466157 2.06374421
O -0.16369882 -8.22823897 1.18836479
Pu -6.46603890 -8.14731763 -0.02083154
O -6.98458969 -0.36178139 -6.41758048
O 2.82496494 -3.41422728 0.91110247
Pu 6.21678192 -2.53191884 -7.32558520
O -4.54665225 -8.21324522 -4.83732468
O -0.18218153 -2.25420409 -1.33236711
Pu 6.04091088 -6.80166914 -2.45147931
O 6.65083205 -6.84579132 -0.23115866
O -7.84294332 -5.54843858 3.08003610
Pu 3.14783797 4.74625311 -0.43749939
O -9.53987870 -1.54453278 -3.76071886
O -5.52945227 -3.64256186 1.49237303
Pu 0.10055103 -7.38001478 -6.78453061
O 5.33859534 -2.35358739 0.41047973
O -5.29726607 1.15507775 5.12883102
Pu -4.95083207 -3.72962510 7.05838961
O -2.28322967 -5.75948552 -0.32540332
O 1.59183033 2.23091067 -7.77920330
Pu 5.75959870 3.02263498 2.01690203
O -6.29451803 -2.12647944 6.85155126
O 5.00845863 7.56425235 3.29367228
Pu -3.14620088 1.59072163 0.35428941
O 1.11266221 4.72844167 -0.46981654
O -0.22852188 -3.01236096 0.98037464
Pu 8.08674708 0.40433369 3.70091438
O 4.42464293 2.76674029 3.74821074
O -0.40542057 6.15539009 -4.59268464
Pu -4.28706286 -5.36559913 -0.24697356
O 1.61177794 -3.64587803 3.45797669
O -6.71124455 4.24655788 -2.06916756
Pu -1.83202186 -0.12754377 8.41890073
O -6.36410202 -0.65327027 3.44970952
O 8.26953084 -0.12408790 5.68210801
Pu 1.95043682 -0.75457076 -7.10051421
O 6.80564740 0.19257059 -5.23936871
O 2.14859953 -9.06754841 3.89120413
Pu 8.06121046 1.82858586 -4.48161836
O -3.40067992 -5.83994095 1.86069738
O -0.23572469 5.45983206 -8.83722547
Pu 2.68754496 7.01676282 6.85648109
O 4.97787514 -0.01754785 8.05487164
O -0.37593528 -1.24806525 2.38348133
Pu 8.53064986 -4.22274676 -2.73376166
O -2.58158929 5.40190951 -3.00511896
O -2.35086537 0.72338086 -2.01324324
Pu -5.24056713 4.77751400 5.59488493
O -6.10286392 -5.28338903 6.53152533
O 1.59907168 6.94401633 0.77257228
Pu 5.55747604 -4.57627685 -5.02445192
O -0.16436220 -1.07476260 5.71155872
O 0.35616932 -0.37430305 8.52026131
Pu 4.22893636 6.89718353 -3.24787088
O -2.61370070 3.54760710 7.15385551
O -6.30719590 -5.06410434 -0.77959482
Pu 2.42683364 0.89491284 -9.70753718
O 1.67853613 -1.07392332 0.82178057
O -7.49713824 1.35189927 -3.18367772
Pu -0.53856040 -2.60108373 -3.87195207
O 6.74298580 8.28140225 6.31272034
O 8.96274013 4.68734402 2.63062261
Pu 7.99288402 4.76903593 4.31607436
O 10.68196518 -1.61340866 -0.74328417
O -2.22905735 1.55909381 9.37652702
Pu 1.91842346 -5.45048224 1.27946917
O 0.41277729 -6.33358632 -0.17294456
O -9.74285024 -0.80595188 6.94845637
Pu -6.87892067 2.78447312 7.43489689
O 8.34574842 5.61942274 6.38459064
O 1.56412350 1.74521414 -2.04234449
Pu 9.61174970 -0.91032560 -2.21389610
O 1.70378324 -2.21319836 -3.23478450
O -4.36378807 0.14803715 1.43619927
Pu -7.08810375 -1.22814694 -1.94073162
O -4.85830418 -0.73860644 -3.33803576
O -1.41571430 3.02462441 -6.30250694
Pu -5.56425452 -1.45993701 1.27704117
O 4.75139382 -5.73868625 -0.96280946
O 8.56797338 3.00283595 4.95080196
Pu -9.52666233 0.48016892 -2.86588557
O 9.24589265 -5.12116058 -1.08896199
O 3.27285316 -0.53324905 -1.53312551
Pu -6.99215453 6.66737247 2.74179606
O -1.77202483 8.79455787 -3.34310083
O 2.34724373 -7.66492201 -2.13696953
Pu -2.11608816 -3.89509554 8.91929579
O -3.41922932 8.48504749 4.94319481
O 4.49633631 8.03096535 -1.66873228
Pu -8.29593089 -3.05483336 -4.40711645
O 10.73143160 2.78944832 0.09424168
O -9.05421301 1.19987429 4.46712427
Pu 3.32491781 3.69351941 -8.13767695
O -0.92722064 -5.60985430 7.72632676
O -2.83792159 -6.48891929 3.94962513
Pu -8.55372433 4.14851648 -3.48668412
O 2.69280305 -7.02718523 0.03709433
O 8.47059322 -1.51463511 2.45593222
Pu 1.45039939 -2.20029939 -10.49335437
O -4.28360269 6.86790358 -3.92463761
O -8.02378822 -3.37889169 4.87497858
Pu -1.49731664 3.39025058 8.77894121
O -4.25626723 -7.77340981 -0.15334633
O -2.10137376 -1.73659642 -8.22199128
Pu -2.40157519 4.87605243 -1.01657427
O -1.18545267 8.53859079 2.53772967
O 4.34744170 3.54146185 -4.31682867
Pu -3.60094128 1.88301793 6.16588689
O -4.16982688 -3.63258941 -1.44984702
O -0.66320847 -0.29223937 -3.43134906
Pu -1.21517226 -6.87850529 2.32790100
O -1.89048967 -4.13259162 4.49923461
O -7.38625494 -0.20589422 5.54148170
Pu -0.17353190 2.13312250 5.64031056
O 0.33377263 -3.91964114 5.44574254
O 4.92550183 -7.53215079 2.61337740
Pu 3.37122691 -1.33744485 -4.06029325
O -6.76277318 3.01881881 5.15713632
O -5.37228843 -1.33413097 -0.89610553
Pu 6.95343776 -0.02090902 7.15565209
O -3.80539662 5.75492305 1.94809904
O 4.34458728 -5.65556691 -3.58267133
Pu -7.05261648 1.25387044 3.89369865
O 0.93166100 1.20891195 3.81768192
O 5.94706405 -0.60092443 -7.59739431
Pu -8.22975001 -1.88383847 6.25209167
O -9.05194314 4.60067768 -1.37290226
O 8.40391010 -3.49405363 1.08495117
Pu 2.70306815 -5.69372806 -1.76038615
O 10.66444682 -2.94720418 2.32435356
O 6.65109277 -2.74360319 -5.30618871
Pu -1.42637261 8.04870159 -5.26987973
O 7.08207700 -2.54358826 -2.20317993
O -9.72490004 2.39060649 -3.40286095
Pu -3.93019164 6.94078907 3.83423513
O -1.72303762 7.04650521 5.89629718
O -0.33006488 -3.19050795 -9.39605369
Pu -5.60925920 -1.40515936 -5.26674887
O 3.42812999 -0.49602908 -5.83515069
O -3.37522041 -0.16188904 6.82462507
Pu -2.74390967 -9.18055622 0.28852792
O -3.84588753 5.83000318 -7.80622756
O -7.52330947 -3.20701016 -2.37340673
Pu -4.06252276 -7.78490570 -2.89095908
O 1.43162131 -4.39454199 -0.75673166
O -2.24715676 6.73984470 -0.07704632
Pu -5.87318426 3.73773154 1.92297468
O -0.36222680 -7.91164740 -2.84397257
O -5.80419932 6.54449932 4.59123569
Pu 7.89671131 -5.54468137 0.43366707
O 3.91581013 2.76671948 -6.23483035
O -3.21426274 9.66922947 7.03691777
Pu -0.44596780 1.67240250 -2.50267141
O -2.52941130 -3.19242049 2.41016347
O 3.10054034 -0.99106000 6.01294959
Pu 5.16687572 8.48476764 5.06176327
O -7.24911579 4.27218296 3.13342949
O -3.67171769 8.62423984 -0.73753192
Pu -2.83003094 4.06803943 2.94005433
O 1.57948968 -7.11990717 2.71948958
O -7.47236999 -1.24260099 0.43158062
Pu -6.95558916 1.57486549 -5.67188672
O 7.32893053 3.86548921 -4.42493033
O -5.38656916 -8.97496391 1.64540980
Pu -7.20936930 -4.78607423 1.28220025
O -2.16715173 1.03392183 -8.59301695
O 7.04420907 -5.47814797 -3.82310543
Pu -1.16365185 -9.77545592 -3.03707425
O 2.67782427 5.16827514 6.04607550
O 0.07373028 0.41896756 -7.31417540
Pu 0.48419543 -8.21467690 -0.94182482
O 3.56575624 -3.67221395 -1.83182568
O 6.04588939 -5.17835195 4.94843486
Pu 0.77833235 5.36687997 -2.63552061
O 8.77724197 -5.93897761 2.25574746
O -0.30663070 1.05476293 0.63188018
Pu -2.80902613 10.30525049 5.23635654
O -1.76562964 -8.10475506 -7.00798692
O -2.49753020 -2.64446242 -3.13550595
Pu 6.08484617 6.91127118 -0.47803391
O 3.31170928 0.61204438 -7.86475028
O -3.19618345 8.32028917 -6.41693749
Pu -0.43056190 -0.98452797 0.35881182
O -2.75138529 -8.53010898 2.28019955
O -0.36455549 -7.18125955 4.16617781
Pu 5.75638736 4.16579270 -5.71517509
O -0.76246190 3.41138411 -1.42252842
O -4.97038138 4.66659328 3.60681287
Pu -0.68695834 -4.51648383 -0.45752650
O 6.54613908 2.41769547 -6.25696005
O -1.99494565 6.05846222 3.34608252
Pu 4.81522338 -1.29014944 4.49615662
O -3.90194222 -2.75526038 -5.21996705
O -7.04229479 3.46329330 0.27744083
Pu -4.55763162 6.69601900 -5.91996107
O 3.53717356 3.19778100 6.84684700
O 0.93458873 6.96619548 5.81757076
Pu -6.98484499 -4.98034711 4.79161975
O 4.48560972 -8.01600600 -3.72088301
O -7.32777979 -1.24787322 -3.97230818
Pu 1.37768762 -1.51745963 7.20970091
O -5.30214751 4.72369548 -5.96015658
O 1.55124815 -5.89663193 -3.56847172
Pu -1.69086220 4.48523312 -4.71090720
O -8.11007475 -6.90947468 -0.27308044
O 2.76639326 4.85527694 -2.67076935
Pu -6.38535009 2.21306408 -1.43898241
O 7.76116477 7.28020592 -1.30521914
O -2.91880086 -4.42466363 6.64170234
Pu -4.58089710 -7.45511133 2.76552665
O -1.32146357 -9.12605861 -1.01673710
O -0.34935619 -3.39086168 7.70330525
Pu 10.01346476 -1.30300216 1.22918990
O 5.55901970 0.36045201 5.35486287
O -3.40318506 -9.59415758 -1.91021488
Pu 2.84709828 -4.55187378 -7.14699934
O -5.12606875 2.77136528 -3.12372031
O 5.32715112 -8.45934593 -1.35360279
Pu -4.42343309 -4.17567123 -3.62341141
O 1.71803812 -3.72092185 -8.66119368
O 8.40854305 -3.55510406 4.71447697
Pu 4.53730874 4.22412503 5.41302904
O 0.55287483 4.19479095 -4.28117673
O 3.34323231 -5.92761576 4.64768654
Pu -3.76824134 -4.49232401 3.62056188
O 7.01620409 2.37257317 0.66955652
O 3.19436668 -9.31940591 0.19692988
Pu -0.10390384 -2.72394033 -7.47301948
O -0.84597333 9.68932336 5.12153532
O -6.03827112 5.65649108 1.06611846
Pu 7.47207056 1.10941645 -0.87959502
O -0.36773736 -4.13665928 10.04434467
O 8.34951668 -0.64589203 -0.22180111
Pu 1.13518960 -4.98653078 8.55414693
O -3.35128574 -5.64650342 -7.62356244
O -3.74053007 -2.19655637 5.70249280
Pu -0.96524752 0.85633532 3.08188974
O -1.84090643 2.24599737 -3.93449639
O 2.30019316 -3.26704613 7.43761275
Pu 9.21477888 -4.06917263 2.95572010
O -0.92321289 4.15840115 4.10525713
O 4.87495436 6.33033573 5.71030314
Pu -3.18193839 -3.85898169 -6.93796297
O 1.86416317 4.57540089 -6.73167484
O 1.10311319 -9.85065779 -2.20487209
Pu -1.00683469 -0.37710707 -9.56259511
O -1.28065046 -6.46854223 -5.59256003
O 8.68017758 2.82051588 -0.73903082
