420
ML-kMC step 9000
Pu 1.41343293 5.05560400 3.76996842
O 1.69446813 1.52011342 6.58592186
O 5.04327914 -2.74908284 -3.69198698
Pu 2.27724497 2.92206081 -4.86226123
O -4.98677760 7.80548536 2.27830274
O 8.94305455 -2.28011395 -3.43051747
Pu -7.33516933 5.62987231 -0.64988081
O 2.84499304 -11.28486884 -1.99889626
O -6.09864118 -3.31373877 -4.68350421
Pu -3.81323795 3.48502592 -7.02954899
O 0.91877039 -5.97574726 6.16014720
O 4.37158271 6.31392146 7.95732562
Pu 4.91053440 -5.58224977 3.34860940
O 2.23456048 2.70643219 0.60812378
O 5.43279967 5.61655030 -4.01718302
Pu -1.64297126 4.94132167 5.85254430
O -5.09447863 0.72370896 -5.10506406
O -4.44290000 1.24217341 -1.39115802
Pu -5.05045328 4.83989945 -3.39643460
O 6.78552505 2.15362654 -2.41480495
O 3.27706274 -0.32779517 3.14373115
Pu 1.69776645 3.88811445 7.30378111
O -4.95002206 1.75895856 -7.38259948
O -6.29180961 7.23025065 -0.51620597
Pu 0.23330411 -4.80330797 -9.79289782
O 2.04331917 6.84101508 -2.17777195
O -4.76713541 3.15115734 7.03791139
Pu 5.33515333 -3.62036297 -1.20824246
O -1.62844039 2.47058151 1.90566898
O -0.29728142 3.96907278 7.14309341
Pu -0.62705944 6.72683539 1.50448243
O 3.84060115 -5.57448339 1.52898360
O 0.81649900 3.85918986 5.24811431
Pu -3.99106177 -0.10818348 -7.53987846
O 1.88412735 -6.13581383 -6.48985401
O 0.59569550 8.23530210 -4.63237851
Pu 0.21346566 3.28773245 0.71139613
O -2.29959612 4.07864564 -8.25532706
O 4.53832247 -3.27571260 3.96607481
Pu -0.09636782 3.23928537 -8.10979959
O -6.94175657 4.74043138 6.79553437
O 0.66059255 -1.19561836 -8.62847434
Pu -3.31884416 -6.99812983 -6.23816781
O -3.94487684 -5.37780028 -5.07783166
O -5.36745432 -5.93512556 3.88060769
Pu -1.27378603 -5.83615379 5.70309437
O 5.78774888 2.41881151 6.49680136
O 1.18339817 -10.22079897 0.57115657
Pu -3.09110395 7.31421238 7.33628758
O -2.06726171 1.57832787 4.56067186
O -8.20162345 5.76723045 1.25147067
Pu 4.92940492 0.90259643 -6.31953279
O 2.83571164 -5.36185405 7.39682864
O 0.65130528 6.76938447 3.24774432
Pu 3.79141806 1.10008260 6.73210194
O -3.55070548 -5.90535725 -2.76455520
O -8.71921093 -4.04992070 -0.18448512
Pu 6.76043749 -2.44053962 1.89788311
O 1.12642747 3.36413008 2.52990068
O -0.82092587 6.80568783 -2.17837862
Pu 0.32911746 8.45954664 -2.63289470
O 5.04456898 8.22351587 0.92708398
O -5.93936665 -6.50426175 1.29143344
Pu -1.93046394 6.14073540 -8.03693373
O 3.91386466 6.49885095 0.33315490
O 3.82748583 2.42596068 -9.48857720
Pu 1.78296294 -7.45920717 4.85350730
O -4.08067246 2.61995091 2.29871074
O 1.57850009 9.20370859 -1.16473147
Pu 2.38085484 -4.25245365 5.46025150
O 2.87457262 -0.89514416 -9.42901325
O 0.23381062 -5.68608393 -8.02091429
Pu -8.47092896 4.36833462 4.88182787
O 9.53929178 0.84205856 2.19544214
O 4.37936632 -3.01232810 -6.45154769
Pu -1.00235871 -6.10851401 -3.62010436
O -8.32538453 6.39712029 4.17401299
O -6.92019129 5.70565307 -3.68705204
Pu 4.97648217 5.98110947 2.21483531
O 4.05927171 4.25381227 1.38749183
O -7.96959052 3.20446252 -5.32900006
Pu 10.23834846 3.02430430 -1.83938980
O 6.38335527 4.68430298 6.13306377
O -1.99362749 5.76474973 8.12677517
Pu 3.23456894 1.53144611 -0.80135575
O -0.28697962 -1.30386929 -5.82678354
O -5.37986904 -3.48707020 4.71205230
Pu -0.89427502 0.76322998 -5.65563610
O 3.33108259 5.40002695 3.61944950
O 2.88077668 6.91696607 -4.84028505
Pu -9.64749652 1.08879869 6.41695955
O -8.76615280 2.99821792 6.36605899
O 9.50865300 2.72886800 -3.76072821
Pu -8.84342885 3.37988040 1.63202904
O 4.83587453 5.50688253 -1.54170328
O -3.46040685 3.74182310 5.05977057
Pu -8.88168397 0.14092898 0.61924860
O -9.78355267 3.78994112 3.34856650
O 1.43420595 -8.35199962 -5.58395527
Pu -7.94081349 -5.27813113 -1.82402746
O -2.49009969 -0.55316813 -0.06065946
O 1.63611930 3.14876501 -9.55797690
Pu -1.65165643 -2.64117797 5.99171030
O 4.18038856 1.36837219 1.20152851
O -3.78376249 5.87271054 5.80503991
Pu -4.43243129 7.14739384 0.47479562
O -2.88570449 0.31953762 -5.78715280
O 6.01360855 4.67123169 3.64224645
Pu -0.36988151 7.90867653 4.49988824
O 0.74616288 3.70008456 9.10950351
O 7.38560308 2.23216265 3.02039359
Pu -5.07418969 -0.95490027 5.20839338
O 0.76818840 0.46624224 -10.35920305
O 4.51631357 3.02045579 -1.25851671
Pu 6.58929420 -1.26148774 -3.80885695
O 6.88455511 -4.90914328 -1.55565405
O -2.36177019 5.98034907 -5.84955574
Pu 2.09653879 -9.10319384 1.89900223
O 6.27593644 4.97892955 1.05521081
O 10.23700549 0.96030117 -2.13650652
Pu 9.08369287 2.87121549 1.51205857
O 6.46941583 -4.44919047 1.96207386
O -1.46353765 1.43916891 7.08311077
Pu -3.43911923 -1.21799293 -1.80464373
O -0.38099192 7.08090762 -6.84207346
O -0.46381682 -1.40098026 -11.03972053
Pu 1.35927141 6.38184089 -5.94783042
O -8.92489932 -4.74454547 -3.65670622
O -0.93053999 -11.32324038 -2.02579968
Pu 2.06026057 -2.30320099 -1.14043665
O -7.47852840 0.71413326 -0.89811728
O -3.85353764 -3.90012420 8.65253389
Pu 3.63579556 -9.31730789 -2.22157521
O 6.24060383 -4.42444913 -6.82861855
O -0.67394145 -4.34663123 -2.66937831
Pu 2.99671830 8.24334533 -0.01039218
O 7.91074364 0.19485713 -2.96699536
O 3.95359872 -5.54113216 -5.77939984
Pu 2.92265872 -7.02850436 -4.68634999
O -3.52996150 3.63965403 -4.77596141
O -9.40041368 -0.48626007 -1.14424077
Pu -3.10151679 7.47086429 -2.30289305
O -0.01439799 -5.20544022 1.78976272
O 4.59066913 5.09292347 -7.23343367
Pu 4.79441041 -7.51546773 0.51953535
O 0.77982889 1.51036243 -4.58322101
O -3.65060588 3.45967210 0.07577077
Pu -3.70566081 1.36517808 -3.69304663
O 1.49450508 -3.94474788 -11.17891791
O -5.90420809 -7.00933264 -1.93812333
Pu 6.81465070 -3.61597135 5.92618748
O -4.51118303 -2.01748849 -7.33487922
O 5.89692129 -1.95496445 6.31794507
Pu 6.33072306 6.36818226 7.27830580
O -1.16421114 4.64855937 0.93495636
O -7.93741665 1.22063121 7.97214163
Pu 7.62466039 3.19034003 7.04377892
O -2.33823060 -7.72229934 -3.89565438
O -2.19274974 -2.03787745 7.94129903
Pu 5.72818030 3.87865145 -2.56817397
O -9.97038497 1.75747691 0.98531942
O -1.15277618 -3.63132752 -5.84520384
Pu -0.43753094 -3.46398274 3.00160063
O 6.52930530 -1.29055289 3.54893178
O -4.25211382 5.76095013 -1.51954578
Pu 2.46444941 -1.92682777 2.04341052
O 3.57211759 8.70119008 6.34458955
O 4.76171794 -0.03949532 -3.94338749
Pu 2.66044506 1.95839011 2.76636977
O 1.79024357 -2.73912200 -6.38279191
O 7.74310652 1.25050376 8.03487157
Pu 1.01049329 -11.31852788 -1.08127580
O -7.52788485 1.80695443 1.95688871
O -0.31926999 -8.33317986 1.07442692
Pu -6.42862681 -8.13598905 -0.18897484
O -6.82070979 -0.37777831 -6.41666985
O 2.83874413 -3.44562280 0.80333823
Pu 6.25818437 -2.47203699 -7.26568675
O -4.61818920 -8.01521667 -4.94688265
O -0.13288842 -2.29768558 -1.30839830
Pu 6.05622014 -6.75166476 -2.41782000
O 6.68707843 -6.93320486 -0.13275503
O -7.95677623 -5.39755869 2.93997103
Pu 3.14783797 4.74625311 -0.43749939
O -9.84956751 -1.33692621 -4.08318214
O -5.55339302 -3.45886455 2.13346432
Pu 0.15539779 -7.34413415 -7.01464465
O 5.36956670 -2.37671392 0.48145839
O -5.23175194 1.03087278 5.31351165
Pu -4.87687591 -3.67563333 6.95240683
O -2.28338772 -5.75990564 -0.32531122
O 1.60402334 2.39035502 -7.08864257
Pu 5.75959870 3.02263498 2.01690203
O -6.14989063 -2.05906074 6.81560990
O 5.01871926 7.55853359 3.28468781
Pu -3.17810751 1.49063146 0.37929822
O 1.23271191 4.73524272 -0.49852495
O -0.28214536 -3.00796012 0.95328626
Pu 8.08360938 0.40506570 3.69970149
O 4.27425025 2.69872142 3.66969378
O -0.43648589 5.99968128 -4.55412829
Pu -4.25467159 -5.40148442 -0.23806527
O 1.74994138 -3.65954117 3.42315248
O -6.57639796 4.18430572 -2.15517641
Pu -1.83202186 -0.12754377 8.41890073
O -6.11704671 -0.46001179 3.52876502
O 8.29396709 -0.21985381 5.61138509
Pu 1.99102555 -0.70724006 -7.10949699
O 6.73246825 0.33178866 -5.06019987
O 2.22607702 -9.25692335 3.84398450
Pu 7.92551841 1.91720137 -4.44340678
O -3.46130149 -5.80775689 1.76823742
O -0.20778589 5.23614739 -8.60538593
Pu 2.69013507 6.90401295 6.71042835
O 4.94077760 0.00574167 7.97761748
O -0.28251647 -0.95433140 2.40436515
Pu 8.55433115 -4.10220231 -2.71076398
O -2.53517548 5.20928622 -3.00130172
O -2.37690657 0.86455986 -2.05785954
Pu -5.34999822 4.73961461 5.60351423
O -6.41440605 -5.20982632 6.44357858
O 1.33056757 6.95317967 0.83595383
Pu 5.53203031 -4.41391330 -4.92581497
O -0.19472970 -1.24034164 5.70085512
O 0.22606295 -0.33334019 8.32824002
Pu 3.97356740 6.62115721 -3.07895489
O -2.54824915 3.56596531 7.05008463
O -6.27845736 -5.04402078 -0.54290371
Pu 2.42540438 1.13869738 -9.66889062
O 1.52175531 -1.01522850 0.41859813
O -7.38104625 1.16524716 -3.27827691
Pu -0.51104973 -2.41555353 -3.91581119
O 6.59393066 8.11962538 6.36690682
O 8.87046651 4.64158531 2.57596092
Pu 7.94726976 4.71006684 4.23567773
O 10.55162506 -1.74620582 -0.65330861
O -2.25100534 1.59385604 9.37261581
Pu 1.91842346 -5.45048224 1.27946917
O 0.40515536 -6.28623603 -0.13285165
O -9.84547033 -1.00102373 6.95455878
Pu -6.71212067 2.64251985 7.19226072
O 8.42086692 5.09053046 6.40712868
O 1.56412350 1.74521414 -2.04234449
Pu 9.50703412 -0.89834080 -2.19498413
O 1.65391412 -2.20171138 -3.29418257
O -4.30879639 0.18623853 1.35133748
Pu -7.00538267 -1.16238097 -1.80894943
O -4.81627574 -0.74582380 -3.09353899
O -1.37528506 2.97659270 -6.45082694
Pu -5.56425452 -1.45993701 1.27704117
O 4.77354061 -5.71317387 -0.91052772
O 8.32886808 2.74888954 4.98651765
Pu -9.54130905 0.44421947 -3.04155804
O 9.12506738 -5.42512533 -1.28466164
O 3.07411505 -0.47206015 -1.49423356
Pu -6.92307622 6.60314454 2.70288417
O -1.77684011 8.82093065 -3.36154326
O 2.52904699 -7.52052370 -2.31411147
Pu -1.90312057 -3.99581852 8.93383250
O -3.32933934 8.34980891 4.88490810
O 4.38857444 8.08534646 -1.64565762
Pu -8.47967114 -2.94463856 -4.31788976
O 10.63822237 2.72415792 0.08257504
O -8.94130430 1.34988650 4.58702046
Pu 3.20792638 3.74774858 -8.11994614
O -0.78007166 -5.73190914 7.90281013
O -2.66774757 -6.34657274 4.03544174
Pu -8.43372690 4.12605543 -3.48884826
O 2.48858125 -7.21185917 -0.06885750
O 8.51771763 -1.45789742 2.70713279
Pu 1.50463373 -1.94809000 -10.45657003
O -4.36822137 7.16354145 -3.89670075
O -8.16647293 -3.33051488 4.81958783
Pu -1.53568739 3.33952233 8.78455153
O -4.21556675 -7.59695152 -0.13308079
O -2.08135421 -1.71731102 -8.06058474
Pu -2.46436471 4.76415679 -0.98746756
O -1.44007526 8.22168732 2.61822274
O 4.14363029 3.54477691 -4.12501457
Pu -3.43741952 1.95612889 6.07743263
O -4.24648309 -3.67330502 -1.33962990
O -0.67443422 -0.29939089 -3.45652226
Pu -1.25674181 -6.91577380 2.32490939
O -1.83213395 -4.01727016 4.39032340
O -7.33946775 -0.20397455 5.51172535
Pu -0.17623463 2.14610653 5.64465203
O 0.16606639 -4.01082256 5.15725912
O 4.76377984 -7.50974041 2.57960738
Pu 3.29889757 -1.39918835 -4.07457207
O -6.73934810 2.95488224 5.09809913
O -5.26996449 -1.30330543 -0.66728678
Pu 6.75809752 -0.03757597 6.96443833
O -3.74092613 5.69766197 1.93555972
O 4.40267249 -5.63340336 -3.41391224
Pu -6.95168590 1.36361957 3.98874095
O 0.87329882 1.38936782 3.97680218
O 5.81875165 -0.60975487 -7.41835814
Pu -8.18230751 -1.93820491 6.23766189
O -8.79712840 4.32082094 -1.57516362
O 8.52754319 -3.44513040 1.02179630
Pu 2.69383440 -5.52478217 -1.93756843
O 10.82990163 -2.61710732 2.53548769
O 6.82643662 -2.79920303 -5.28614015
Pu -1.32123287 8.06022718 -5.24283436
O 7.08669214 -2.55238579 -2.04605239
O -9.62616196 2.38666973 -3.35304408
Pu -3.84104870 6.78631406 3.76837185
O -1.57188581 7.07969852 5.81224395
O -0.55674596 -3.07608208 -9.31134441
Pu -5.56635229 -1.40392651 -5.02342649
O 3.42812999 -0.49602908 -5.83515069
O -3.47479332 -0.04954324 6.82060859
Pu -2.81678185 -9.02079986 0.20766683
O -3.92745255 5.88455382 -7.75906861
O -7.33435745 -3.09292622 -2.44031525
Pu -4.26822638 -7.87400766 -2.99494423
O 1.40294171 -4.36007156 -0.66869768
O -2.24224665 6.67477732 -0.08624861
Pu -5.62262700 3.69780513 1.82947849
O -0.25166056 -7.85842025 -2.81145839
O -5.86207764 6.62006249 4.57201745
Pu 7.84955471 -5.46695009 0.45133184
O 3.91436080 2.76014063 -6.23288473
O -3.11164595 9.30646686 7.11685703
Pu -0.44596780 1.67240250 -2.50267141
O -2.41614071 -3.10228929 2.40032049
O 3.20736308 -0.99369782 5.92242439
Pu 5.06468950 8.38026104 5.02237377
O -7.23483754 4.17256575 3.10398701
O -3.66501735 8.58689237 -0.69615763
Pu -2.74243381 4.06001467 2.88321135
O 1.59365109 -7.24740849 2.72226434
O -7.37302424 -1.32034081 0.54025185
Pu -6.92089244 1.56166933 -5.59612078
O 6.87480207 3.60116444 -4.15590171
O -5.50966628 -8.92168429 1.44644105
Pu -7.20936930 -4.78607423 1.28220025
O -2.49857400 0.91907401 -8.73033491
O 7.07696978 -5.43041175 -3.83474066
Pu -1.22094668 -9.67919642 -3.16966375
O 2.73207695 5.01914039 5.88485284
O -0.08965686 0.62138090 -7.53860967
Pu 0.67014367 -8.07719441 -0.87621667
O 3.45424517 -3.55461525 -1.91073595
O 6.03512277 -5.12752617 4.91869527
Pu 0.58062009 5.22043089 -2.52373002
O 8.71013219 -5.62968502 2.24020383
O -0.39022371 1.07865999 0.55014876
Pu -2.71007300 10.11719250 5.29603598
O -1.65386574 -8.04797041 -7.18621259
O -2.53228494 -2.50351959 -3.17100793
Pu 5.85321832 6.98403398 -0.49757479
O 3.40427386 0.70965353 -7.73470447
O -3.04401572 8.37662945 -6.51891161
Pu -0.63726211 -0.98577645 0.25307515
O -2.75472143 -8.47436488 2.19565900
O -0.22254215 -7.16905382 4.44312158
Pu 5.71037780 4.29433384 -5.75044763
O -0.87392402 3.58013501 -1.41641676
O -4.92638873 4.74931647 3.52566621
Pu -0.68638123 -4.49569171 -0.57022577
O 6.70217289 2.42665974 -6.27558881
O -1.99193168 5.93153249 3.44635840
Pu 4.80785909 -1.27778976 4.37492051
O -3.99382194 -2.58960240 -4.97583381
O -6.96911654 3.36419950 0.32906282
Pu -4.54952690 6.89111423 -5.89763728
O 3.55704432 3.09161408 6.86099870
O 0.94326445 7.01143192 5.84360003
Pu -7.02212539 -4.91939425 4.58261287
O 4.33834664 -8.32162144 -3.78387884
O -7.45699757 -1.28762314 -3.89441305
Pu 1.37768762 -1.51745963 7.20970091
O -5.20948981 4.94970623 -5.80162674
O 1.50265963 -5.80605829 -3.63486566
Pu -1.52360435 4.20011808 -4.78753183
O -8.09389923 -7.06335424 -0.77028317
O 2.65263878 4.87551316 -2.77770170
Pu -6.38535009 2.21306408 -1.43898241
O 7.50500462 6.57137847 -1.37511545
O -2.79605516 -4.66806099 6.64406024
Pu -4.65755046 -7.55157840 2.73710235
O -1.25231945 -9.01231117 -1.05368980
O -0.30700409 -3.26757239 7.59283657
Pu 9.99119752 -1.13926439 1.23592503
O 5.46779501 0.44091361 5.31580861
O -3.53649794 -9.47887683 -1.85193985
Pu 2.80247291 -4.44409110 -7.05414019
O -5.32126751 2.73879949 -3.24796104
O 5.18553859 -8.37132023 -1.43628102
Pu -4.47833098 -4.14190982 -3.52420546
O 1.65041726 -3.39445874 -8.55803922
O 8.26361732 -3.55633250 4.69358624
Pu 4.53228161 4.19467938 5.16621460
O 0.44730191 3.84799983 -4.09144800
O 3.18567549 -5.84232407 4.61732802
Pu -3.69867480 -4.40447337 3.50136682
O 6.92295174 1.94967768 0.85257459
O 3.42206933 -9.28956836 0.27193465
Pu -0.20089576 -2.74324235 -7.33129115
O -0.60540308 9.82394992 5.11317114
O -5.75380561 5.69611816 1.09880724
Pu 7.31745596 1.05468005 -0.91337310
O -0.15466625 -4.31691285 9.77966995
O 8.30893098 -0.57254004 -0.21481361
Pu 1.20596224 -4.96924868 8.36506023
O -3.43581366 -5.31528778 -7.56613850
O -3.61511550 -2.30719109 5.59672127
Pu -0.96524752 0.85633532 3.08188974
O -1.82557076 2.22154560 -3.97641080
O 2.34453905 -3.26368376 7.48923036
Pu 9.53356206 -3.96399612 3.05936712
O -0.92321289 4.15840115 4.10525713
O 4.79152018 6.39019368 5.57975854
Pu -3.26376717 -3.55980471 -6.77883151
O 1.81716956 4.58039780 -6.48818459
O 1.22039981 -9.58620391 -2.14723583
Pu -1.20780294 -0.28319818 -9.45540961
O -1.26911075 -6.43877295 -5.59091036
O 8.49764720 2.85883518 -0.55559929
