420
ML-kMC step 10000
Pu 1.41108258 5.08432378 3.81257533
O 1.79058411 1.45028078 6.68286841
O 5.04327914 -2.74908284 -3.69198698
Pu 2.10861583 2.88138321 -4.87898886
O -5.11629848 7.86510597 2.40494815
O 8.87757266 -2.25364062 -3.40793885
Pu -7.36566039 5.79927572 -0.76760088
O 2.95969509 -11.21351371 -2.09856971
O -6.20936910 -3.38804673 -4.70296156
Pu -3.73882356 3.51628242 -6.90067790
O 0.94228214 -6.20969237 6.28477834
O 4.37867096 6.28937002 8.07145912
Pu 4.90451533 -5.56465475 3.33517389
O 2.14230108 2.77950936 0.63088151
O 5.49730301 5.59955058 -4.03500941
Pu -1.63873612 4.92076158 5.77239294
O -5.09447863 0.72370896 -5.10506406
O -4.43963900 1.37028712 -1.24989253
Pu -5.02454031 4.82609678 -3.37280844
O 6.78081110 2.13060129 -2.45055454
O 3.21652014 -0.44229769 3.11728507
Pu 1.71002720 3.88367708 7.32373907
O -5.06933386 1.91938999 -7.29495174
O -6.23526009 7.33300005 -0.63234460
Pu 0.30878962 -4.77766733 -9.68020084
O 1.98467270 6.73838372 -2.17510191
O -4.76713541 3.15115734 7.03791139
Pu 5.32162019 -3.64157849 -1.24154666
O -1.56042663 2.45482521 1.86808455
O -0.29728142 3.96907278 7.14309341
Pu -0.66795380 6.69676769 1.38954608
O 3.82993279 -5.56594633 1.51881696
O 0.97232587 3.72874086 5.30586215
Pu -4.10624678 0.00515235 -7.53241532
O 1.95031976 -6.14979893 -6.54817821
O 0.39731234 8.11383758 -4.64985917
Pu 0.18948670 3.15906367 0.74232726
O -2.27065938 4.03765089 -8.17258281
O 4.53832247 -3.27571260 3.96607481
Pu -0.09636782 3.23928537 -8.10979959
O -6.91667798 4.78453279 6.68489951
O 0.59372956 -1.16056054 -8.55575218
Pu -3.34221441 -7.13007384 -6.16741187
O -3.84978074 -5.20512558 -5.07545294
O -5.28626541 -6.02490489 3.93791828
Pu -1.27378603 -5.83615379 5.70309437
O 5.67021789 2.31999317 6.59371376
O 1.20738860 -10.38577735 0.62028799
Pu -3.16541215 7.23878435 7.42020200
O -2.06726171 1.57832787 4.56067186
O -8.03848578 5.63334972 1.19074981
Pu 4.92940492 0.90259643 -6.31953279
O 3.01187250 -5.40537808 7.23528031
O 0.65504869 6.82440399 3.10897760
Pu 3.79141806 1.10008260 6.73210194
O -3.49422448 -5.80875920 -2.72291095
O -8.61307269 -4.26864173 -0.20453589
Pu 6.76043749 -2.44053962 1.89788311
O 1.14297028 3.37825392 2.54697040
O -0.82092587 6.80568783 -2.17837862
Pu 0.38872146 8.49742061 -2.65185565
O 4.97185797 8.14723102 0.97048099
O -5.98156421 -6.60601883 1.17548280
Pu -1.93046394 6.14073540 -8.03693373
O 3.91386466 6.49885095 0.33315490
O 3.94803638 2.46615294 -9.48194035
Pu 1.65652300 -7.35164095 4.75331411
O -4.06570597 2.47996531 2.28062158
O 1.46091458 9.31541551 -1.15178299
Pu 2.38085484 -4.25245365 5.46025150
O 2.87493460 -0.83230581 -9.34900351
O -0.01013739 -5.41252837 -7.87803348
Pu -8.43627685 4.31232660 4.87923801
O 9.53929178 0.84205856 2.19544214
O 4.18622379 -3.01148184 -6.32903989
Pu -0.92306304 -6.02093009 -3.70862631
O -8.40173164 6.30538672 4.15436383
O -6.97460974 5.75890941 -3.64994010
Pu 4.97648217 5.98110947 2.21483531
O 4.03621384 4.24630581 1.34173292
O -7.89311127 3.26077462 -5.19488951
Pu 10.17213391 2.93850963 -1.73596201
O 6.24584449 4.58364197 6.00031418
O -2.06278042 5.47152436 8.04350807
Pu 3.23456894 1.53144611 -0.80135575
O -0.01515667 -1.30089353 -5.91496340
O -5.30999072 -3.53431072 4.65784852
Pu -0.89427502 0.76322998 -5.65563610
O 3.54678234 5.35024011 3.53110928
O 2.83037293 7.10747538 -4.80425856
Pu -9.48838416 1.02746164 6.47447968
O -8.64277941 2.84811971 6.52421102
O 9.55356814 2.89452436 -3.63138634
Pu -8.71986054 3.39498504 1.53472477
O 4.83587453 5.50688253 -1.54170328
O -3.30417889 3.77639294 4.83650668
Pu -8.88168397 0.14092898 0.61924860
O -9.69099006 3.69638292 3.36277875
O 1.41545108 -8.24247409 -5.51122035
Pu -7.91075742 -5.24048733 -1.84110376
O -2.56524619 -0.77590378 0.07361801
O 1.51917481 3.06379621 -9.15775213
Pu -1.65165643 -2.64117797 5.99171030
O 4.06694398 1.36326329 1.16646058
O -3.62563844 5.93652947 5.85648666
Pu -4.43243129 7.14739384 0.47479562
O -2.88570449 0.31953762 -5.78715280
O 6.02360004 4.58308428 3.62964883
Pu -0.36988151 7.90867653 4.49988824
O 0.74506739 3.69868701 9.10202001
O 7.48411386 2.26194143 3.08355113
Pu -5.21470393 -0.97186544 5.25518226
O 0.68745536 0.49061531 -10.29646466
O 4.46369466 2.97262345 -1.16960409
Pu 6.51354554 -1.27259365 -3.72110852
O 7.00128656 -4.85484983 -1.48950129
O -2.36177019 5.98034907 -5.84955574
Pu 2.08279990 -8.97849263 1.80051152
O 6.28104715 5.01875894 0.86638427
O 10.13284445 0.94889851 -2.09328471
Pu 9.08376223 2.86862861 1.45610836
O 6.43795152 -4.61628432 2.00221299
O -1.45969851 1.45939980 7.06748500
Pu -3.43911923 -1.21799293 -1.80464373
O -0.39386109 7.12243882 -6.83394787
O -0.60850493 -1.38854921 -11.00584811
Pu 1.35927141 6.38184089 -5.94783042
O -8.67958324 -4.86537728 -3.81204243
O -0.86676650 -11.35589859 -2.37971323
Pu 2.02414313 -2.31405366 -1.20462064
O -7.41007573 0.63201584 -0.97206408
O -3.88792505 -3.73776794 8.77253694
Pu 3.63579556 -9.31730789 -2.22157521
O 6.28945037 -4.38014029 -6.89933692
O -0.67394145 -4.34663123 -2.66937831
Pu 2.88549063 8.30870822 0.02520795
O 7.89106648 0.18057482 -2.93626987
O 4.13840174 -5.58587325 -5.78756823
Pu 2.92265872 -7.02850436 -4.68634999
O -3.50090935 3.64922958 -4.77175209
O -9.37592004 -0.47163464 -1.14938475
Pu -3.10151679 7.47086429 -2.30289305
O -0.09387237 -5.22858106 1.83000900
O 4.52054151 4.93003771 -7.30278492
Pu 4.79441041 -7.51546773 0.51953535
O 0.72962456 1.42330840 -4.48237627
O -3.66018879 3.47980516 0.04306274
Pu -3.77452163 1.36873488 -3.77614827
O 1.36438051 -3.90971859 -11.07602384
O -6.19074934 -6.94426780 -2.02010190
Pu 6.77114855 -3.59281735 5.88818109
O -4.86030126 -1.94402569 -7.37026147
O 5.80414883 -1.95270101 6.16818422
Pu 6.32346189 6.35640631 7.16411582
O -1.16421114 4.64855937 0.93495636
O -7.74959941 0.90528401 7.86743497
Pu 7.55908560 3.16227047 6.95061500
O -2.29842826 -8.00537116 -4.04451725
O -2.19274974 -2.03787745 7.94129903
Pu 5.70658722 3.86977456 -2.55524620
O -9.85031706 1.88150378 0.79581975
O -1.21640181 -3.54866256 -5.51468180
Pu -0.43753094 -3.46398274 3.00160063
O 6.49252185 -1.14938635 3.46309121
O -4.25211382 5.76095013 -1.51954578
Pu 2.46445366 -1.92684575 2.04341179
O 3.45720518 8.74595402 6.27104920
O 4.77593192 -0.04459862 -3.86120107
Pu 2.68345886 1.96934510 2.76591173
O 1.80057483 -2.84983360 -6.36843306
O 7.72390940 1.51553761 7.91270294
Pu 1.01049329 -11.31852788 -1.08127580
O -7.43214706 1.52699487 1.87171757
O -0.42737684 -8.31514403 0.98277443
Pu -6.37397100 -8.06670823 -0.18759471
O -6.82441667 -0.29858074 -6.27278860
O 2.82064805 -3.40085503 0.84634263
Pu 6.20120402 -2.46297120 -7.21328879
O -4.66946695 -7.99351581 -4.95817798
O -0.24736684 -2.26937633 -1.36304271
Pu 5.99062586 -6.66282401 -2.38566019
O 6.70082212 -6.84883801 -0.17377980
O -8.02394750 -5.57654197 3.09098285
Pu 3.14783797 4.74625311 -0.43749939
O -9.60834933 -1.29194423 -3.76111912
O -5.55339302 -3.45886455 2.13346432
Pu 0.14841672 -7.22336928 -6.91021478
O 5.41639223 -2.34343576 0.41398092
O -5.16250461 1.09028378 5.22905303
Pu -4.80772448 -3.56701557 6.96881071
O -2.28338772 -5.75990564 -0.32531122
O 1.61428631 2.39825984 -7.03854463
Pu 5.75959870 3.02263498 2.01690203
O -6.27355258 -2.08205821 6.82666917
O 4.99962752 7.54005304 3.30557836
Pu -3.18772747 1.49877550 0.37382546
O 1.09768709 4.68025010 -0.51113450
O 0.02481471 -3.01164482 1.01222996
Pu 8.14528677 0.28263531 3.67857415
O 4.27425025 2.69872142 3.66969378
O -0.46195030 5.92350762 -4.54029159
Pu -4.25467159 -5.40148442 -0.23806527
O 1.82413891 -3.47527704 3.29538381
O -6.67416913 4.25109160 -2.06609494
Pu -1.86593467 -0.11730609 8.44977483
O -6.11621405 -0.61965802 3.37317648
O 8.29982729 -0.45429575 5.62525359
Pu 2.00158520 -0.62779701 -7.20026683
O 6.82882654 0.18388153 -5.15170911
O 2.26110769 -9.03486271 3.76617209
Pu 7.92551841 1.91720137 -4.44340678
O -3.70420670 -5.57801910 1.92886020
O -0.25298130 5.17909426 -8.69457557
Pu 2.77899143 6.96322212 6.78356721
O 4.99520533 0.01258334 7.97877237
O -0.16400879 -1.14563701 2.47791034
Pu 8.53255849 -4.10614865 -2.87683717
O -2.54499122 5.20453723 -2.98670725
O -2.34788727 0.88948136 -1.80862684
Pu -5.26159163 4.66144725 5.51041874
O -6.26230612 -4.78287334 6.59974368
O 1.25884637 7.20321199 0.75331557
Pu 5.53203031 -4.41391330 -4.92581497
O -0.24930142 -1.18143207 5.61038487
O 0.16463240 -0.30297944 8.34867877
Pu 3.97356740 6.62115721 -3.07895489
O -2.54824915 3.56596531 7.05008463
O -6.27845736 -5.04402078 -0.54290371
Pu 2.42540438 1.13869738 -9.66889062
O 1.44103313 -1.03618281 0.27448789
O -7.36325354 1.22057971 -3.23780790
Pu -0.57709509 -2.49604891 -3.78534309
O 6.82955526 7.91163655 5.96186437
O 8.98946676 4.62485684 2.59169642
Pu 8.02370628 4.66080934 4.36529468
O 10.39177041 -1.60968117 -0.64460708
O -2.30308116 1.55514004 9.53815157
Pu 1.92065824 -5.32791761 1.20580579
O 0.29192913 -6.15653708 -0.13672930
O -9.87936699 -1.10314338 6.85193909
Pu -6.63315145 2.52554369 7.24282711
O 8.23575888 5.33484518 6.41916357
O 1.54739941 1.81317132 -2.02149834
Pu 9.36340415 -0.84583746 -2.09440402
O 1.65391412 -2.20171138 -3.29418257
O -4.30879639 0.18623853 1.35133748
Pu -7.00538267 -1.16238097 -1.80894943
O -4.82674387 -0.73514432 -3.21392916
O -1.37528506 2.97659270 -6.45082694
Pu -5.56425452 -1.45993701 1.27704117
O 4.69153489 -5.74677294 -1.03474543
O 8.50568452 2.82825741 5.01906912
Pu -9.36601264 0.49371420 -2.88561644
O 9.25384592 -5.25198826 -1.53089989
O 3.13664308 -0.50136159 -1.56328350
Pu -6.93787497 6.70161673 2.69994025
O -1.68731732 8.81378934 -3.43318977
O 2.52904699 -7.52052370 -2.31411147
Pu -1.89450225 -3.98637656 8.89076446
O -3.32183152 8.57730361 4.68529620
O 4.34127554 8.02659886 -1.76893504
Pu -8.21089475 -3.03053623 -4.39456019
O 10.50443104 2.65859435 0.19909537
O -8.90841851 1.48860771 4.53917652
Pu 3.20792638 3.74774858 -8.11994614
O -0.86019440 -5.76118772 7.81922174
O -2.65271246 -6.28816408 3.89250839
Pu -8.48108408 4.24336075 -3.40438984
O 2.48858125 -7.21185917 -0.06885750
O 8.49644461 -1.56221512 2.52326310
Pu 1.20651411 -1.94299607 -10.49733735
O -4.08987842 6.96050273 -3.92941178
O -8.12780632 -3.34231895 4.83641891
Pu -1.53942321 3.34964082 8.73178486
O -4.30616726 -7.47199892 -0.40978738
O -1.84030068 -1.92419182 -7.92409635
Pu -2.47834167 4.73706442 -0.94117590
O -1.42815807 8.28883813 2.75394844
O 4.14363029 3.54477691 -4.12501457
Pu -3.43741952 1.95612889 6.07743263
O -4.14045276 -3.60844560 -1.32711078
O -0.84748037 -0.25775277 -3.42311338
Pu -1.23379074 -6.84930275 2.28833429
O -1.84277917 -4.02869100 4.50000591
O -7.32181221 -0.22016008 5.60291834
Pu -0.02974529 1.92250496 5.71749953
O 0.24829538 -3.93382940 5.09986911
O 4.80364607 -7.61371373 2.49056642
Pu 3.29889757 -1.39918835 -4.07457207
O -6.68963223 3.09472808 4.90488532
O -5.20785063 -1.39128405 -0.66928649
Pu 6.74946618 -0.02980908 6.93721715
O -3.74092613 5.69766197 1.93555972
O 4.40267249 -5.63340336 -3.41391224
Pu -6.97601590 1.29883786 3.88295268
O 0.92374675 1.29454720 3.89848934
O 5.75757899 -0.59317421 -7.37763684
Pu -8.15807402 -2.02617334 6.36029913
O -9.10678055 4.61975265 -1.52444323
O 8.43626149 -3.53082042 1.13996728
Pu 2.68130540 -5.52338070 -2.01959939
O 10.96135611 -2.46324358 2.55471235
O 6.72275261 -2.75291664 -5.18245934
Pu -1.41758408 8.01686745 -5.26936265
O 6.95512324 -2.48692472 -2.07625164
O -9.59247669 2.42826315 -3.28609178
Pu -3.84104870 6.78631406 3.76837185
O -1.63406550 6.94234027 5.76748052
O -0.61528281 -3.11325996 -9.22431529
Pu -5.56635229 -1.40392651 -5.02342649
O 3.51447009 -0.62265399 -5.86231363
O -3.47479332 -0.04954324 6.82060859
Pu -2.81678185 -9.02079986 0.20766683
O -3.89431009 5.72230874 -7.72750570
O -7.13748234 -3.19080669 -2.46504281
Pu -4.27050763 -7.64651302 -2.95390023
O 1.46828324 -4.41351677 -0.81207264
O -2.20313639 6.62611419 -0.14996424
Pu -5.54654246 3.68140983 1.62564557
O -0.30558371 -7.78361474 -2.80861779
O -5.60956181 6.58829094 4.71372675
Pu 7.84955471 -5.46695009 0.45133184
O 4.12252130 2.80486106 -6.33469652
O -3.22038605 9.20714353 7.05254265
Pu -0.49181965 1.68476478 -2.45741592
O -2.41610846 -3.10034437 2.40138120
O 3.09483151 -1.01303959 6.00952596
Pu 5.06294824 8.36833358 5.02309200
O -7.24421709 4.08303769 3.04109089
O -3.97265098 8.71131507 -0.68552526
Pu -2.74243381 4.06001467 2.88321135
O 1.52043926 -6.92373305 2.63055134
O -7.46915174 -1.33632090 0.54175099
Pu -6.92089244 1.56166933 -5.59612078
O 7.00344902 3.61312475 -4.22891419
O -5.22220811 -8.94483428 1.41476496
Pu -7.18112471 -4.86564151 1.27166581
O -2.69134641 0.94756957 -8.56839546
O 6.94316509 -5.33824614 -3.76840236
Pu -1.26596505 -9.63697271 -3.10308289
O 2.73207695 5.01914039 5.88485284
O -0.03762958 0.86329091 -7.59371337
Pu 0.67014367 -8.07719441 -0.87621667
O 3.45424517 -3.55461525 -1.91073595
O 6.01189633 -5.10775508 4.89966627
Pu 0.58062009 5.22043089 -2.52373002
O 8.94612315 -5.67612378 2.24992189
O -0.55499217 1.02239785 0.43757546
Pu -2.51382424 10.17207799 5.34646607
O -1.69073902 -8.01506978 -7.29435293
O -2.54937082 -2.49861154 -3.06708638
Pu 5.76823854 6.96065953 -0.64388466
O 3.32070406 0.81990122 -7.75617741
O -3.09524097 8.25677270 -6.51207405
Pu -0.63662683 -0.98585547 0.25197757
O -2.71968560 -8.27686789 2.16163319
O -0.29992006 -7.04537828 4.27300752
Pu 5.68048172 4.27191864 -5.72049978
O -0.84353618 3.51919611 -1.37732544
O -4.96905578 4.74094668 3.41175913
Pu -0.66914205 -4.50568833 -0.56173168
O 6.65727015 2.46134757 -6.20550699
O -1.83640609 6.12794748 3.49313678
Pu 4.80785909 -1.27778976 4.37492051
O -3.97346532 -2.58636938 -5.03839755
O -6.94372875 3.46517227 0.17989323
Pu -4.37145462 6.88055354 -5.88844029
O 3.51520896 3.11647163 6.58706067
O 0.92573441 6.97834972 5.80027409
Pu -6.98371113 -4.92179891 4.63931193
O 4.34508780 -8.16479597 -3.78729304
O -7.36200226 -1.13251844 -3.85789275
Pu 1.37768762 -1.51745963 7.20970091
O -5.16840206 4.98750320 -5.68978204
O 1.50536249 -5.80554126 -3.62856603
Pu -1.52360435 4.20011808 -4.78753183
O -8.05970776 -7.18090916 -0.60713310
O 2.67362402 4.80479511 -2.72665738
Pu -6.29255242 2.25013160 -1.55590554
O 7.41482312 6.32195221 -1.52374533
O -2.77983241 -4.54000004 6.58147680
Pu -4.63093214 -7.46688345 2.69836828
O -1.21412151 -9.16787824 -1.00234172
O -0.22798529 -3.34684099 7.51884454
Pu 10.10342255 -1.20650622 1.26221612
O 5.46105541 0.33556090 5.21955847
O -3.57035354 -9.35280795 -1.72973427
Pu 2.80247291 -4.44409110 -7.05414019
O -5.33386393 2.73106780 -3.22443317
O 5.07728971 -8.19624316 -1.40687261
Pu -4.46748103 -4.16216372 -3.52172465
O 1.65928065 -3.53930878 -8.61773804
O 8.36350338 -3.47721930 4.55584245
Pu 4.53228161 4.19467938 5.16621460
O 0.33330548 3.77997628 -4.00262669
O 3.18567549 -5.84232407 4.61732802
Pu -3.69867480 -4.40447337 3.50136682
O 6.91035916 1.81145919 0.84133211
O 3.48572631 -9.25871025 0.17428524
Pu -0.17803704 -2.83637511 -7.29854911
O -0.52079698 9.77516353 5.10489896
O -5.97557877 5.61766191 0.91176267
Pu 7.31745596 1.05468005 -0.91337310
O -0.04376951 -4.10914999 9.71410328
O 8.31796860 -0.56626153 -0.03494894
Pu 1.21871657 -5.09418205 8.20155629
O -3.43874335 -5.58344632 -7.65781164
O -3.61511550 -2.30719109 5.59672127
Pu -0.94188078 0.90057850 3.00560478
O -1.93727564 2.14108974 -4.01132853
O 2.24930256 -3.24436356 7.34592387
Pu 9.50698072 -4.00700602 3.08390074
O -0.79605285 3.94622044 3.93931530
O 4.74986167 6.48856301 5.77385057
Pu -3.33552758 -3.55201277 -6.71663585
O 1.79628378 4.51028655 -6.39288452
O 1.20594825 -9.54369743 -2.14348743
Pu -1.17741871 -0.25306334 -9.25451961
O -1.26574965 -6.44256890 -5.58490062
O 8.42594929 2.76434222 -0.53670227
