420
ML-kMC step 2500
Pu 1.42724690 5.23793109 4.01913595
O 1.66246528 1.54906299 6.55086006
O 4.68283668 -2.85958087 -3.99270553
Pu 2.34959597 3.24871294 -4.93755978
O -5.26596681 7.83748508 2.36591802
O 9.27731599 -2.35711175 -3.53754051
Pu -7.48321014 5.68784044 -0.61014811
O 2.95062721 -11.44419403 -1.82223498
O -6.35458947 -3.11829682 -4.64503125
Pu -3.68179639 3.52842801 -7.10298508
O 1.16433126 -6.46554438 6.17915626
O 4.58519081 6.34293293 8.20931696
Pu 5.01695305 -5.65334028 3.39996595
O 2.28958378 2.72745730 0.56411375
O 5.25739180 5.58063379 -4.33686387
Pu -1.64536648 5.10971239 6.05570859
O -5.50364601 0.92792917 -5.11506015
O -4.52371445 1.24604633 -1.34046099
Pu -5.20892647 4.87646880 -3.38004068
O 7.17043432 2.32686181 -2.58395423
O 3.56554581 -0.44854591 3.03249038
Pu 1.73336989 3.89443336 7.63655151
O -4.46662714 1.62138750 -7.36824440
O -6.11000007 7.02494440 -0.83282595
Pu 0.25840793 -5.08450271 -10.02816451
O 2.11043155 7.35281637 -2.37134408
O -5.13025347 3.33464998 7.11528247
Pu 5.74966028 -3.53805265 -1.17224625
O -1.69498831 2.36800937 1.92176239
O -0.43949889 3.73872258 7.07336479
Pu -0.70528103 6.86534769 1.50878702
O 3.94754986 -5.50071054 1.76211603
O 0.86508240 3.93642506 5.35633386
Pu -3.57139552 -0.32023638 -7.77142148
O 1.43918679 -6.00703405 -6.15747074
O 0.59241419 8.42951959 -4.60398991
Pu 0.13799071 3.27718520 0.83186685
O -1.84881895 4.09158647 -8.36205149
O 4.71732532 -3.32252512 4.10522241
Pu 0.03333626 3.66322108 -8.36509830
O -7.03333249 4.90182801 6.81028155
O 0.79632708 -1.29262112 -8.87864670
Pu -3.36250717 -7.11365835 -6.09049934
O -4.20587412 -5.30336548 -5.38388209
O -5.46448368 -5.78178847 3.72475917
Pu -0.92829828 -6.00809959 5.79366655
O 5.70568419 2.49955456 6.59391376
O 0.96914105 -10.41800499 0.39596054
Pu -2.92761439 7.66700158 7.27559890
O -2.02295840 1.67826916 4.80909713
O -8.95358227 5.48066676 1.01274163
Pu 4.86657275 0.96178261 -6.87732246
O 2.75761024 -5.54151995 7.99039231
O 0.42385779 6.87150691 3.41798471
Pu 3.94240901 1.06416653 6.90321599
O -3.59788683 -5.98721434 -3.00768848
O -8.80060059 -4.25869667 0.20351467
Pu 6.76855686 -2.53243840 1.96544641
O 1.31653454 3.63019781 2.67527873
O -0.83228846 6.89481916 -2.20665866
Pu 0.42741382 8.69169183 -2.58365632
O 4.92164256 8.18736833 0.89711125
O -5.86903509 -6.59967667 1.25488773
Pu -1.77535728 6.35875172 -8.09153408
O 4.30094314 6.35656956 0.21819320
O 4.09521203 2.11773003 -9.37095924
Pu 1.90201365 -7.31892796 4.47343597
O -4.15261209 2.43513871 2.36093431
O 1.44650498 9.26417881 -0.93789818
Pu 2.64354793 -4.61414138 6.05499008
O 2.91102937 -1.03964249 -9.94581870
O 0.53721214 -6.26736374 -8.49817766
Pu -8.71703213 4.68462005 5.08533650
O 9.42412716 0.62463071 1.89428177
O 4.41850860 -2.84697310 -7.38669089
Pu -0.93211746 -6.34028391 -3.60357080
O -8.54453509 6.65255580 4.30656244
O -7.01391625 5.42523633 -4.09071130
Pu 4.97663203 5.81457185 2.22266888
O 3.90191233 4.36519817 1.50004037
O -8.03349133 3.21976027 -5.39803374
Pu 10.92706586 2.83341477 -1.24257145
O 6.43346384 4.72042911 6.06187551
O -1.80986971 6.10350940 8.00599599
Pu 3.31224777 1.40930522 -0.81237284
O -0.27972827 -1.51628095 -5.94424958
O -5.47395746 -3.24028458 5.04214524
Pu -0.97693491 0.95449557 -5.56726843
O 3.37051934 5.22917200 3.83460719
O 2.98492513 7.12747228 -4.69954841
Pu -9.93241276 1.43546131 6.84885218
O -9.00186430 3.25586540 6.51478288
O 10.48211390 3.35209210 -3.17374694
Pu -9.14275820 3.51787327 1.32904268
O 5.43123871 5.89701027 -1.81496077
O -3.21174807 4.00750665 5.18195097
Pu -9.11107688 0.08716350 0.75267190
O -9.59216779 3.79785885 3.35661255
O 1.74558109 -8.42492935 -5.83271474
Pu -8.32258444 -5.12814699 -1.49213732
O -2.46195718 -0.43589851 -0.33562387
O 1.84117785 4.56209663 -8.90696093
Pu -1.73925512 -2.77128732 6.23901353
O 4.48752238 1.55923525 1.64279940
O -3.82459572 6.27623432 5.97469612
Pu -4.52926156 7.08571220 0.51514685
O -3.04684523 0.34693756 -5.82964027
O 6.14356077 4.72246159 3.52121721
Pu -0.42841342 8.15543070 4.53338203
O 0.57468389 3.67487099 9.17575976
O 7.66163046 2.12171496 2.78922595
Pu -5.58764130 -1.02940140 5.34474768
O 0.56983544 0.44064040 -10.50102338
O 4.60237555 3.10663795 -1.38592985
Pu 6.60617193 -1.20875933 -3.67883979
O 6.92932839 -5.16461176 -1.41780031
O -2.26271175 6.11784075 -6.06013042
Pu 1.98464899 -9.09164540 1.73821335
O 6.65213049 5.18730430 1.21173048
O 10.24410472 1.00081905 -2.11235335
Pu 9.15000173 3.09760445 1.47068510
O 6.64117686 -4.49660796 2.36985421
O -1.04761920 1.36776295 7.30392981
Pu -3.48265690 -1.21454291 -1.97804484
O -0.37061727 7.53776274 -6.93660508
O -0.31835673 -1.46567793 -11.49413268
Pu 1.44070961 6.82443138 -5.84431613
O -8.50326507 -5.09292607 -3.42260785
O -0.82793676 -11.48661753 -2.06969043
Pu 2.29399829 -2.43785998 -1.18516043
O -7.85985353 0.67372360 -0.90972898
O -4.30196822 -3.85061388 8.98731335
Pu 3.57846004 -9.47070504 -2.18949414
O 6.51850214 -4.30218910 -6.77218503
O -0.65392449 -4.56657374 -2.54400299
Pu 3.10535041 8.23140417 -0.12553476
O 7.99185496 0.14864467 -2.94397911
O 4.05270117 -5.76720118 -6.12190759
Pu 2.86442602 -7.11531564 -4.94606330
O -3.96987047 4.09259037 -5.01983930
O -10.05282226 -0.47993508 -1.32886011
Pu -3.17200820 7.36490206 -2.39110386
O -0.18936393 -5.11450965 1.86118922
O 4.86951054 4.77470402 -7.40242075
Pu 4.69191424 -7.45831413 0.33338533
O 0.75438328 1.80187219 -4.48625697
O -3.37330190 3.61418454 0.26007933
Pu -3.90765123 1.40028346 -3.99527275
O 1.61167188 -4.13759006 -11.08834799
O -5.68589032 -7.25792932 -1.56005576
Pu 6.80844465 -3.66514370 5.87319116
O -4.69153287 -2.12758395 -7.24389101
O 6.37741110 -1.83639032 6.32047493
Pu 6.49087908 6.54841754 7.22014339
O -1.00889405 4.90249542 0.90995680
O -8.12008680 1.49551518 8.13114123
Pu 7.69246215 3.22551041 6.90842189
O -2.37383334 -8.13322139 -3.76776512
O -2.29815960 -2.09396753 8.22684366
Pu 5.81146042 4.08395387 -2.69897489
O -10.16022988 1.83828675 0.88174961
O -1.22207865 -3.72288886 -6.31957220
Pu -0.46929135 -3.27719369 2.99075486
O 6.59466558 -1.34452878 3.62364232
O -4.15078249 5.75330846 -1.49113995
Pu 2.68789360 -2.23172629 2.38543556
O 3.57641672 8.84082229 6.18256853
O 4.84803417 -0.20190295 -3.41193398
Pu 2.93490605 2.20005465 3.09729960
O 1.78710668 -2.87094374 -6.30671193
O 7.96572947 1.57925802 8.02097216
Pu 1.01144394 -11.72660064 -1.19288580
O -7.40083437 1.90862982 2.21118604
O -0.03814341 -8.32284920 1.11073054
Pu -6.65170518 -8.15589445 -0.03696015
O -7.12689257 -0.35538568 -6.50743667
O 2.83599886 -3.67413713 1.03455758
Pu 6.41022683 -2.25362978 -7.24070213
O -4.57776959 -8.14065382 -4.95789948
O 0.08446629 -1.93311015 -1.13853689
Pu 5.94748124 -6.90250446 -2.62213005
O 6.49942229 -7.03649700 -0.07735017
O -8.13163010 -5.27405782 2.96086816
Pu 3.20261534 4.82751945 -0.40566295
O -10.04459310 -2.10228863 -3.86230245
O -5.63493959 -3.60757185 1.31581405
Pu 0.11559701 -7.48134182 -6.86958856
O 5.58483794 -2.20356951 0.50424851
O -5.51968230 0.98823932 5.26209316
Pu -5.02201898 -3.70072141 7.08740538
O -2.26443060 -5.97703298 -0.25826597
O 1.49215437 2.38731817 -8.49121940
Pu 5.93710013 3.08659410 2.04325661
O -6.42305102 -1.99085252 7.08379516
O 4.78178770 7.39663037 3.40606408
Pu -3.35429966 1.55315495 0.37943603
O 1.12582072 4.91878530 -0.61641214
O -0.22557380 -3.08246992 0.87186623
Pu 8.24895032 0.38571691 3.56595987
O 4.62671940 2.87386872 3.80919706
O -0.46374826 6.37531153 -4.70507100
Pu -4.34248485 -5.61841835 -0.32300429
O 1.49706642 -3.61190416 3.44709187
O -6.50569227 4.27260574 -1.77506450
Pu -1.66630900 -0.17094948 8.38183481
O -6.30436949 -0.78790996 3.25364428
O 8.38016426 0.23671696 5.48826822
Pu 1.91937702 -0.92221447 -7.13677776
O 6.74374682 0.31820780 -5.02006159
O 2.43630637 -9.17359533 3.76570909
Pu 8.03099220 2.01306950 -4.43454359
O -3.45927296 -5.96703201 1.85262117
O -0.18350935 5.54524647 -9.01547561
Pu 2.91198307 7.02591974 6.91818996
O 5.21692909 -0.07124579 7.97471358
O -1.01705627 -0.96099199 2.67914803
Pu 8.56147238 -4.14595064 -2.80799863
O -2.66838386 5.28150833 -3.05648197
O -2.48224316 1.00857579 -2.37418300
Pu -5.30878127 4.84502688 5.70435088
O -6.24876118 -5.44526758 6.70648634
O 1.73755536 7.07038100 0.77722670
Pu 5.55883193 -4.42556926 -5.03022954
O -0.17835177 -1.34607362 5.88227810
O 0.51935442 -0.43149516 8.86583029
Pu 4.23700762 7.01542954 -3.23657751
O -2.63072376 3.49871043 7.42263898
O -6.34080323 -5.15276713 -0.62210872
Pu 2.31737651 0.92029229 -9.75901581
O 1.37901036 -1.13381089 1.41742591
O -7.30103701 1.00267796 -3.04100421
Pu -0.53856040 -2.60108373 -3.87195207
O 6.68629055 8.29341498 6.14292005
O 9.03637407 4.52467503 2.81030686
Pu 7.92685669 4.70890558 4.41334405
O 10.89282031 -1.63273277 -0.89986480
O -1.98846566 1.40825060 9.72093176
Pu 1.91842346 -5.45048224 1.27946917
O 0.31278579 -6.33508199 -0.44699869
O -10.06478386 -0.64062161 6.92785141
Pu -7.01186827 3.01408657 7.57451343
O 8.40546817 5.19490242 6.50102166
O 1.47566295 1.71591627 -1.90296694
Pu 9.89573352 -0.85445663 -2.37736018
O 1.65010359 -2.26056126 -3.42672244
O -4.86056304 0.37946448 1.25229029
Pu -7.08810375 -1.22814694 -1.94073162
O -4.87895596 -1.13939638 -3.50784072
O -1.70435460 3.20835388 -6.35844854
Pu -5.69061104 -1.48765962 1.25997671
O 4.59314019 -5.93054432 -1.23558955
O 8.18943138 2.83061018 5.07084445
Pu -9.49530290 0.33130306 -2.99744783
O 9.09283629 -5.04784406 -1.19756048
O 3.21946801 -0.68902106 -1.42492147
Pu -6.97158713 6.69850397 2.93270047
O -1.68476304 8.72145152 -3.41715846
O 2.24766000 -8.01111829 -2.08856135
Pu -2.29437481 -3.92312095 9.17899962
O -3.64198329 8.70982828 4.85268946
O 4.69118321 8.14034679 -1.74210499
Pu -8.42732443 -3.18722596 -4.21121567
O 11.09180220 2.82120544 0.82050387
O -9.42742579 1.17526441 4.93170165
Pu 3.38856413 3.54852750 -8.20080157
O -0.85052881 -5.79973940 7.85131231
O -3.18610075 -6.99737973 4.00544450
Pu -8.52291550 4.17068527 -3.55277670
O 2.69940296 -7.00363890 0.23988516
O 8.62433893 -1.59094600 2.58626362
Pu 1.36963297 -2.13236433 -10.77620717
O -4.54157310 6.71373227 -4.07796911
O -8.15342328 -3.47709720 5.27790988
Pu -1.38144694 3.16208690 8.82692634
O -4.22062072 -7.94899162 0.24041239
O -1.93826942 -1.79551737 -8.21958345
Pu -2.31751470 4.90290539 -1.10127643
O -1.57626924 8.63867057 2.89987587
O 4.48247861 3.55985179 -4.34379146
Pu -3.80807434 2.00402821 6.16710222
O -4.18625378 -3.75742865 -1.58854572
O -0.85564450 -0.45620205 -3.47472198
Pu -1.26292270 -6.87416651 2.18899067
O -1.73304165 -4.35569587 4.60800827
O -7.69520674 -0.41812411 5.41879872
Pu -0.17353190 2.13312250 5.64031056
O 0.47627164 -4.14564619 5.72299867
O 4.97468483 -7.47762375 2.48345269
Pu 3.30217113 -1.36564550 -4.09653844
O -6.93731563 3.01188128 5.39895294
O -5.38469942 -1.28750131 -1.02177368
Pu 7.04864998 -0.00136779 6.93440657
O -4.04313152 5.75080807 1.98972410
O 4.56234716 -5.89326160 -3.72436693
Pu -7.39723024 1.24584171 4.17803402
O 0.95436689 1.40736190 3.94385824
O 6.01197199 -0.43737425 -7.63152050
Pu -8.59520392 -1.87930370 6.29231631
O -9.00371271 4.81718165 -1.58254984
O 8.04815124 -3.54624188 0.73346089
Pu 2.64758139 -5.71430606 -1.94541634
O 10.54619611 -2.80219687 2.07914520
O 6.80043069 -2.52978251 -5.22332967
Pu -1.47233094 8.17724104 -5.31559496
O 7.07750152 -2.67023071 -2.43019872
O -9.46347795 2.33818876 -3.54104361
Pu -3.81483311 6.79296984 3.88385748
O -1.57822343 7.24872161 5.87588086
O -0.48999068 -3.19582627 -9.71231051
Pu -5.64231480 -1.40683210 -5.44880595
O 3.34237146 -0.48271512 -5.83847948
O -3.49344205 0.34642427 7.26860826
Pu -2.88730079 -9.55044777 0.22283586
O -3.64352323 5.57084644 -7.70844233
O -7.59001042 -3.44219085 -2.35894533
Pu -4.23587132 -7.85537233 -2.83018410
O 1.53444770 -4.37159963 -0.81893546
O -2.15782415 6.72656066 -0.09410310
Pu -6.01048572 3.65331704 2.20801388
O -0.24047333 -7.98347605 -2.84407484
O -5.90136776 6.57521141 4.76267753
Pu 7.93028567 -5.70537694 0.33476143
O 3.79618630 2.54533023 -6.18365384
O -3.10771985 9.68689820 7.03114915
Pu -0.49014544 1.72356612 -2.46744594
O -2.47167895 -3.47994388 2.58055576
O 3.26435956 -1.17399369 5.98930855
Pu 5.01596526 8.50293831 4.94880212
O -7.13773782 4.55197683 3.49759889
O -3.69584431 8.44791731 -0.68691458
Pu -2.83003094 4.06803943 2.94005433
O 1.39129413 -7.12338118 2.50152657
O -7.66957103 -1.24461343 0.58316960
Pu -7.25852771 1.50695648 -5.87132989
O 7.20845547 3.91520595 -4.40081422
O -5.93936826 -9.19415103 1.61948678
Pu -7.21089882 -4.83205388 1.30681190
O -2.46960866 0.78266841 -8.86419998
O 6.97549883 -5.50741831 -3.82875009
Pu -1.15579538 -9.81337012 -3.12641781
O 2.72331807 4.99694201 6.33171881
O 0.38431693 0.48333736 -7.14834251
Pu 0.46730586 -8.25158638 -0.92230623
O 3.77587651 -3.58744123 -1.91221506
O 6.02457968 -5.19086572 4.98517961
Pu 0.82207022 5.75453543 -2.74130390
O 9.07853486 -5.77299450 2.12748427
O -0.25804736 1.13205993 0.63317969
Pu -2.69750372 10.38685042 5.14889562
O -1.80873438 -8.19915694 -6.98523983
O -2.57881045 -2.64357280 -3.07512614
Pu 6.27837968 7.17398248 -0.49684579
O 3.22841889 0.47014193 -7.82588186
O -3.33154758 8.34807645 -6.40475955
Pu -0.63386086 -0.92213533 0.48804619
O -2.66266211 -8.55911548 2.04793282
O -0.25158302 -7.08411962 4.07233719
Pu 5.90312028 4.29929651 -5.80148660
O -0.90596929 3.57220721 -1.29427335
O -4.84304831 4.49734532 3.74419561
Pu -0.74106508 -4.48330262 -0.48434588
O 6.61855104 2.31301364 -6.24653056
O -1.99386002 6.25684292 3.22935943
Pu 4.81575952 -1.29019432 4.49846900
O -4.12438281 -2.93734091 -5.13891869
O -7.13487409 3.30407318 0.24592393
Pu -4.61155471 6.68541289 -6.15133575
O 3.48160600 3.07690661 7.06183636
O 1.15268336 7.05695726 5.80335033
Pu -7.09254191 -5.15634573 4.81427179
O 4.15705262 -8.15162817 -3.62341738
O -8.02978373 -1.12670767 -3.83896135
Pu 1.28608626 -1.49995867 7.35473349
O -5.66439650 4.98503215 -6.46884858
O 1.50176717 -6.16006384 -3.61365460
Pu -1.84646448 4.55027447 -4.86871262
O -8.23710804 -7.07246620 -0.71392692
O 2.81263154 5.07208407 -2.64350831
Pu -6.31526912 2.23872486 -1.38248920
O 7.88266545 8.03793480 -1.07715117
O -3.01536729 -4.45206456 6.61645184
Pu -4.61323366 -7.68557317 2.58014108
O -1.40579621 -9.27760913 -0.99898700
O -0.46652888 -3.42880132 7.86509487
Pu 9.89868574 -1.30670028 0.93339836
O 5.52610133 0.35655348 5.50749630
O -3.73403970 -9.76307325 -1.73901683
Pu 2.81728739 -4.54722407 -7.20013491
O -5.00186847 2.81005787 -3.08381160
O 5.32191797 -8.47771525 -1.49950769
Pu -4.74503125 -4.09552233 -3.61271027
O 1.37785114 -3.85828381 -8.59063029
O 8.31501066 -3.69326118 4.62636441
Pu 4.53387043 4.18579389 5.44293447
O 0.59330117 4.41662811 -4.33713056
O 3.27832536 -5.83018653 4.71296919
Pu -3.56922434 -4.95101678 3.68735747
O 7.16045965 2.67460298 0.29289232
O 3.47497930 -9.18464573 0.06532431
Pu -0.06289522 -2.83912383 -7.72029001
O -0.81292504 9.78947189 5.49657059
O -6.41303020 5.64153634 1.21015777
Pu 7.54343254 1.16954772 -1.00119114
O -0.34758863 -4.58093521 10.21012535
O 8.48100391 -0.75419366 -0.41410833
Pu 0.96408343 -4.88995585 8.64465484
O -3.10986516 -5.62828156 -7.70111255
O -3.59081285 -1.91919585 5.71262889
Pu -0.92946753 0.94026815 3.17900430
O -1.96868065 2.52234838 -4.14729998
O 2.29226738 -3.28248904 7.65652013
Pu 9.46304506 -4.06299242 3.12081715
O -1.01494198 4.26298455 4.19834081
O 4.79073885 6.39657881 5.85893879
Pu -3.27871952 -3.87402152 -6.78686723
O 2.01071764 4.72133977 -6.55695527
O 0.95344784 -9.96853437 -2.20334989
Pu -1.05532728 -0.44677964 -9.94930240
O -1.22610048 -6.59874498 -5.59285979
O 9.11513517 2.42913725 -0.43327740
