420
ML-kMC step 3500
Pu 1.42724690 5.23793109 4.01913595
O 1.75735020 1.49098516 6.56394258
O 4.67856180 -2.87623694 -4.00236387
Pu 2.35920435 3.27006060 -4.84321727
O -5.26524899 7.85395992 2.38215355
O 9.20947276 -2.33980796 -3.51181511
Pu -7.48321014 5.68784044 -0.61014811
O 2.82240308 -11.39547066 -2.05887393
O -6.37136565 -3.35781521 -4.77453354
Pu -3.76194056 3.53025143 -7.20570429
O 1.14097633 -6.36206814 6.11303331
O 4.67110279 6.42195025 8.40174886
Pu 4.99820803 -5.64020143 3.40730672
O 2.28958378 2.72745730 0.56411375
O 5.48461919 5.72844587 -4.29254870
Pu -1.63794343 5.10522881 6.02178105
O -5.50364601 0.92792917 -5.11506015
O -4.52371445 1.24604633 -1.34046099
Pu -5.20892647 4.87646880 -3.38004068
O 7.08142549 2.39492931 -2.46355947
O 3.56554581 -0.44854591 3.03249038
Pu 1.73336989 3.89443336 7.63655151
O -4.61806136 1.59491177 -7.43021632
O -6.08158206 7.04048986 -0.81964563
Pu 0.19943371 -5.09247035 -10.06821851
O 2.29378229 7.09808979 -2.11612580
O -5.02874840 3.25903245 7.26178048
Pu 5.53937825 -3.58841004 -1.14065226
O -1.69498831 2.36800937 1.92176239
O -0.27480763 3.90849879 7.04600966
Pu -0.70528103 6.86534769 1.50878702
O 3.94754986 -5.50071054 1.76211603
O 0.86508240 3.93642506 5.35633386
Pu -3.52597218 -0.27553152 -7.59606432
O 1.57194189 -6.00902776 -6.20859775
O 0.57718524 8.26287658 -4.51669768
Pu 0.13799071 3.27718520 0.83186685
O -2.13213636 4.18023129 -8.32410078
O 4.49269034 -3.31715833 4.09466039
Pu 0.05067872 3.64315202 -8.24807821
O -7.09922579 4.80345094 6.83019697
O 0.79632708 -1.29262112 -8.87864670
Pu -3.34879637 -7.24459269 -6.22139723
O -3.82578495 -5.38949633 -5.30365957
O -5.37726782 -6.05555800 3.77938137
Pu -1.12373334 -5.91658130 5.97802440
O 5.50038973 2.54300550 6.73950393
O 0.93801240 -10.21936851 0.44460755
Pu -3.04326694 7.68962989 7.31703386
O -2.00462406 1.58373958 4.75018350
O -8.59746317 5.55000730 1.10478164
Pu 4.80455246 0.89148584 -6.70830606
O 2.95267623 -5.61098957 7.83291052
O 0.43602005 6.81401689 3.42301195
Pu 3.94240901 1.06416653 6.90321599
O -3.30141286 -5.93810404 -2.85139638
O -8.79507402 -4.23197498 0.18051372
Pu 6.81140300 -2.48448314 2.00209043
O 1.23447065 3.50851685 2.64528532
O -0.83228846 6.89481916 -2.20665866
Pu 0.42741382 8.69169183 -2.58365632
O 4.98224402 8.30278887 0.97000091
O -5.85295333 -6.62013857 1.24250346
Pu -1.77626567 6.35058277 -8.06807677
O 4.16347087 6.45216160 0.42608893
O 4.03657541 2.05786598 -9.38618618
Pu 1.89965884 -7.30286849 4.46330112
O -4.11632110 2.60244012 2.31653185
O 1.46601061 9.35155004 -1.13122552
Pu 2.64354793 -4.61414138 6.05499008
O 2.83863460 -1.11416639 -9.65186767
O 0.54274025 -5.88493574 -8.35466237
Pu -8.57723750 4.61898424 5.00851693
O 9.53433934 0.75493396 1.88205465
O 4.41850860 -2.84697310 -7.38669089
Pu -0.93211746 -6.34028391 -3.60357080
O -8.78684103 6.56806002 4.13353400
O -7.15615429 5.37860928 -3.92856731
Pu 4.97663203 5.81457185 2.22266888
O 3.90191233 4.36519817 1.50004037
O -8.37523620 3.02210432 -5.40127803
Pu 10.89160309 2.84334090 -1.37135521
O 6.41929338 4.71571477 6.05022371
O -1.86354863 6.08524482 8.00179247
Pu 3.26181963 1.46121749 -0.81428954
O -0.28654399 -1.29115302 -5.92822820
O -5.59549670 -3.46714835 4.95115080
Pu -0.93824321 0.85884772 -5.62011718
O 3.32267674 5.39818924 3.71415079
O 2.98492513 7.12747228 -4.69954841
Pu -9.91259572 1.21351113 6.69246192
O -9.07111753 3.20976916 6.54962716
O 9.59085345 3.10433610 -3.14831289
Pu -9.11231563 3.61911234 1.30473116
O 5.02930431 5.66639181 -1.66534042
O -3.32866850 3.96533803 5.06991910
Pu -9.13264679 0.12516797 0.64644012
O -9.51182777 3.89195514 3.14872406
O 1.52578556 -8.58440143 -5.36429227
Pu -8.28276040 -5.14859798 -1.54070179
O -2.45825540 -0.38840228 -0.06589526
O 1.91616725 4.52501822 -8.97575668
Pu -1.69248210 -2.66015977 6.10140750
O 4.47642710 1.59740043 1.44323485
O -3.82459572 6.27623432 5.97469612
Pu -4.52926156 7.08571220 0.51514685
O -3.04684523 0.34693756 -5.82964027
O 6.14356077 4.72246159 3.52121721
Pu -0.42841342 8.15543070 4.53338203
O 0.61058509 3.66410413 9.18341591
O 7.55191778 2.12024191 2.78234754
Pu -5.58764130 -1.02940140 5.34474768
O 0.57067617 0.44090054 -10.50190957
O 4.51826998 3.00226560 -1.26820978
Pu 6.58982897 -1.22698415 -3.68061543
O 6.81573378 -5.09747545 -1.44184235
O -2.25233651 6.10514856 -6.03853091
Pu 1.95518263 -8.95691518 1.71220446
O 6.57717019 5.18811681 0.96790732
O 10.59440885 0.87107009 -2.16807745
Pu 9.16767861 3.01806087 1.59636366
O 6.39009343 -4.47742225 2.31466643
O -1.00490902 1.36901863 7.33034492
Pu -3.43911923 -1.21799293 -1.80464373
O -0.30884244 7.48608370 -6.92488841
O -0.38897677 -1.30471815 -11.51061646
Pu 1.38553624 6.60989435 -5.92646990
O -8.52220684 -5.08063496 -3.55890267
O -0.80342073 -11.56307424 -2.05691665
Pu 2.07705888 -2.42918396 -1.09383638
O -7.69404887 0.69982235 -0.79605935
O -4.21321415 -3.83646819 8.92978840
Pu 3.54547593 -9.38351135 -2.16954442
O 6.57325226 -4.26472613 -6.72636991
O -0.65392449 -4.56657374 -2.54400299
Pu 3.14804434 8.24421848 -0.07077690
O 7.99185496 0.14864467 -2.94397911
O 4.08508139 -5.69451092 -6.05624934
Pu 2.94826963 -7.04049971 -4.85281669
O -3.96987047 4.09259037 -5.01983930
O -9.85773830 -0.45617131 -1.16316376
Pu -3.16131059 7.48481044 -2.40473554
O -0.13251804 -5.11413942 1.90399564
O 4.78647884 4.97449319 -7.33296358
Pu 4.69865360 -7.49759277 0.42850394
O 0.84791094 1.71602248 -4.72777631
O -3.37330190 3.61418454 0.26007933
Pu -3.90851239 1.39507950 -3.99408049
O 1.49806863 -3.98114717 -11.25637134
O -5.67354905 -7.28523366 -1.70358988
Pu 6.77458836 -3.63858805 5.85797501
O -4.53057158 -2.01558459 -7.30438239
O 6.37718315 -1.83671755 6.31928162
Pu 6.49411482 6.46291602 7.37974478
O -1.00889405 4.90249542 0.90995680
O -8.19980680 1.42588193 7.99327329
Pu 7.69246215 3.22551041 6.90842189
O -2.35969956 -8.39187628 -4.00019370
O -2.24820325 -2.12241037 8.21723858
Pu 5.83038264 3.96126568 -2.62698521
O -10.17917017 1.88301902 0.83737765
O -1.19681567 -3.68687870 -6.36014252
Pu -0.46929135 -3.27719369 2.99075486
O 6.59466558 -1.34452878 3.62364232
O -4.24222830 5.79681480 -1.40622029
Pu 2.68789360 -2.23172629 2.38543556
O 3.47094101 8.85205911 6.14387072
O 4.85409312 -0.21833291 -3.53840413
Pu 2.93490605 2.20005465 3.09729960
O 1.83709769 -2.81031755 -6.38609705
O 7.81761780 1.70471839 8.10126823
Pu 1.02070460 -11.52289453 -1.10512565
O -7.64165738 1.93670636 2.16159516
O -0.02953062 -8.32149920 1.11193242
Pu -6.63531613 -8.14344268 -0.03693071
O -7.12689257 -0.35538568 -6.50743667
O 2.83985126 -3.56184617 1.01162402
Pu 6.33110684 -2.34408965 -7.24466873
O -4.68158374 -7.96167012 -4.78573589
O 0.20238889 -1.98183532 -1.10934801
Pu 6.02775373 -6.89372456 -2.58932004
O 6.73881437 -7.08869068 -0.12625637
O -8.04324897 -5.42002391 3.16743748
Pu 3.20261534 4.82751945 -0.40566295
O -9.80563890 -1.81918722 -3.68722077
O -5.63493959 -3.60757185 1.31581405
Pu 0.11559701 -7.48134182 -6.86958856
O 5.53222054 -2.28025466 0.54315176
O -5.52712408 1.05241503 5.19803983
Pu -4.95657923 -3.66872806 6.99851917
O -2.26443060 -5.97703298 -0.25826597
O 1.55489437 2.15660760 -8.30681146
Pu 5.93710013 3.08659410 2.04325661
O -6.41016110 -1.91638942 7.01817042
O 4.78178770 7.39663037 3.40606408
Pu -3.35429966 1.55315495 0.37943603
O 0.99196236 4.65948431 -0.71976383
O -0.22557380 -3.08246992 0.87186623
Pu 8.16656254 0.35723136 3.66580793
O 4.62671940 2.87386872 3.80919706
O -0.47811674 6.29026711 -4.64650328
Pu -4.27057812 -5.51308982 -0.30072686
O 1.49706642 -3.61190416 3.44709187
O -6.63933303 4.29401880 -2.01772179
Pu -1.66630900 -0.17094948 8.38183481
O -6.30436949 -0.78790996 3.25364428
O 8.48150427 0.19372806 5.65626972
Pu 1.91356789 -0.91988000 -7.13872643
O 6.90995665 0.14251003 -5.10367124
O 2.41785576 -9.12264141 3.63402551
Pu 8.03099220 2.01306950 -4.43454359
O -3.45927296 -5.96703201 1.85262117
O -0.25373030 5.62056630 -8.96623993
Pu 2.95339865 7.06180270 6.95096323
O 5.20600872 -0.19873756 8.08571598
O -0.96347339 -1.23621332 2.75236923
Pu 8.48428586 -4.15667196 -2.88879493
O -2.66837311 5.28151517 -3.05650607
O -2.48224316 1.00857579 -2.37418300
Pu -5.25515305 4.77730704 5.61398517
O -6.19580086 -5.49500554 6.85538897
O 1.58979010 7.05618045 0.83292763
Pu 5.39268112 -4.59356800 -5.08232090
O -0.17835177 -1.34607362 5.88227810
O 0.41185905 -0.40972511 8.56570569
Pu 4.19546841 6.96997229 -3.21410021
O -2.64949724 3.49172327 7.22967567
O -6.37457089 -5.22842455 -0.68150253
Pu 2.31737651 0.92029229 -9.75901581
O 1.26841588 -1.00784194 1.32752745
O -7.38323569 0.93853266 -3.04858025
Pu -0.53856040 -2.60108373 -3.87195207
O 6.56233967 8.06889207 6.19115047
O 9.06368137 4.70122701 2.69796301
Pu 8.00693996 4.78694379 4.39036226
O 10.80553591 -1.65995825 -0.71177897
O -2.29631253 1.55675892 9.53770782
Pu 1.91842346 -5.45048224 1.27946917
O 0.36486516 -6.19304143 -0.22693332
O -9.87938833 -0.69545764 7.10628956
Pu -7.02056376 2.88178768 7.46207919
O 8.34327141 5.26815659 6.56978406
O 1.37322248 1.66698539 -2.00349568
Pu 9.79913529 -0.85598967 -2.37893218
O 1.58115600 -2.26707062 -3.32580983
O -4.63564667 0.33493549 1.38235834
Pu -7.08810375 -1.22814694 -1.94073162
O -4.88231192 -1.08381301 -3.51709846
O -1.72404196 3.25919404 -6.27769123
Pu -5.66851049 -1.51517286 1.28896520
O 4.68979005 -5.87655614 -1.21808751
O 8.21105690 2.80109238 4.94203852
Pu -9.42192588 0.30213009 -3.00605434
O 9.03952413 -4.99199379 -1.24973793
O 3.15808385 -0.60772798 -1.29154912
Pu -6.99907226 6.62901064 2.91655773
O -1.79429804 8.83772190 -3.41638240
O 2.26027669 -7.75291482 -1.99551830
Pu -2.27699081 -3.91993225 9.18773665
O -3.51478538 8.54168546 4.91559615
O 4.65104747 8.24132003 -1.72119829
Pu -8.25105834 -3.11767439 -4.11790468
O 11.01986223 3.19019941 0.69747316
O -9.16788210 1.38964713 4.85682418
Pu 3.35896531 3.55710759 -8.08407993
O -0.95268098 -5.88801610 7.91208080
O -2.88666334 -6.94088441 4.03974581
Pu -8.54853050 4.13163393 -3.41296176
O 2.69940296 -7.00363890 0.23988516
O 8.58191789 -1.52824555 2.42845208
Pu 1.37304147 -2.08061745 -10.65065727
O -4.42549931 6.89160969 -4.11232893
O -8.13668761 -3.47642067 5.26532375
Pu -1.39002043 3.15036166 8.70728580
O -4.29600248 -8.04548312 0.17016904
O -2.05068312 -1.92456188 -8.20667614
Pu -2.34232437 4.89422457 -0.97761060
O -1.34207833 8.60756230 2.72884330
O 4.48247861 3.55985179 -4.34379146
Pu -3.80807434 2.00402821 6.16710222
O -4.18625378 -3.75742865 -1.58854572
O -0.85564450 -0.45620205 -3.47472198
Pu -1.26292270 -6.87416651 2.18899067
O -1.59423823 -4.30416860 4.45024987
O -7.81308711 -0.22249031 5.42358524
Pu -0.17353190 2.13312250 5.64031056
O 0.49080332 -4.15210609 5.68966920
O 4.97718799 -7.53560144 2.48563557
Pu 3.30217113 -1.36564550 -4.09653844
O -6.87532003 3.02199731 5.25282800
O -5.40903016 -1.30202899 -1.04927429
Pu 7.03455277 -0.10517336 7.10952056
O -3.94084689 5.72251925 2.08474113
O 4.29892841 -5.85242508 -3.64106696
Pu -7.34358454 1.19767315 4.06038426
O 0.95436689 1.40736190 3.94385824
O 6.21273877 -0.42804264 -7.77890581
Pu -8.50135393 -1.98770528 6.44560160
O -9.03164292 4.67856067 -1.52281686
O 8.28773722 -3.59966200 1.01317061
Pu 2.64758139 -5.71430606 -1.94541634
O 10.59600875 -2.83535340 2.15643742
O 6.71615552 -2.48112912 -5.23867545
Pu -1.47233094 8.17724104 -5.31559496
O 7.00459839 -2.77475053 -2.24526797
O -9.36533050 2.23685295 -3.44744975
Pu -3.81483311 6.79296984 3.88385748
O -1.57822343 7.24872161 5.87588086
O -0.48225211 -3.24177230 -9.73213306
Pu -5.64231480 -1.40683210 -5.44880595
O 3.41375929 -0.40992451 -5.89453553
O -3.34212934 0.15294988 7.08008801
Pu -2.97487671 -9.48857303 0.13719204
O -3.79381945 5.61697211 -7.78638136
O -7.45577930 -3.28600551 -2.19330918
Pu -4.18870887 -7.89566989 -2.82134524
O 1.53444770 -4.37159963 -0.81893546
O -2.24088340 6.69111770 -0.02337066
Pu -5.88029467 3.59388043 2.04041311
O -0.23497987 -7.96906681 -2.84104240
O -5.75013057 6.61273659 4.54142350
Pu 7.84919755 -5.60049575 0.41601494
O 3.66687015 2.69798659 -6.36652294
O -3.17883891 9.67778865 7.01560206
Pu -0.49014544 1.72356612 -2.46744594
O -2.58472741 -3.43753482 2.65871886
O 3.23772653 -1.06779271 5.87277080
Pu 5.00781313 8.51395707 4.94357599
O -7.08552808 4.57315000 3.40916719
O -3.63834660 8.49229434 -0.76432659
Pu -2.83003094 4.06803943 2.94005433
O 1.57397532 -7.13040523 2.51530346
O -7.57749650 -1.34206169 0.62762546
Pu -7.25852771 1.50695648 -5.87132989
O 7.14420690 3.86790494 -4.35880940
O -5.94707294 -9.10639710 1.84632970
Pu -7.21089882 -4.83205388 1.30681190
O -2.25446896 0.69939059 -8.72748356
O 6.93323332 -5.47217814 -3.98023977
Pu -1.16272486 -9.87297390 -3.04886963
O 2.72438818 5.08097304 6.31409857
O 0.18219849 0.37518069 -7.32468584
Pu 0.46730586 -8.25158638 -0.92230623
O 3.61386710 -3.53214277 -1.98646072
O 6.08723968 -5.20099416 5.01907168
Pu 0.71330932 5.55898416 -2.59742030
O 8.82159305 -5.81031635 2.29343095
O -0.25804736 1.13205993 0.63317969
Pu -2.68886860 10.32523579 5.25673893
O -1.80191563 -8.45954718 -7.10288397
O -2.57881045 -2.64357280 -3.07512614
Pu 6.14738257 7.02849895 -0.49130527
O 3.16873705 0.51407716 -7.79025197
O -3.10972348 8.13999923 -6.57252343
Pu -0.48992183 -0.99354440 0.43952837
O -2.76879593 -8.58045241 2.08475699
O -0.23004453 -6.97058227 4.06760747
Pu 5.86991177 4.25586652 -5.83287709
O -0.90248609 3.44802189 -1.46086053
O -4.84304831 4.49734532 3.74419561
Pu -0.74106508 -4.48330262 -0.48434588
O 6.36105873 2.29228352 -6.06462361
O -1.99386002 6.25684292 3.22935943
Pu 4.81575952 -1.29019432 4.49846900
O -4.12438281 -2.93734091 -5.13891869
O -7.10887495 3.32760487 0.24800917
Pu -4.60811164 6.72996546 -6.20083997
O 3.48160600 3.07690661 7.06183636
O 1.16569000 7.10250786 5.83561574
Pu -7.10769202 -5.06969771 4.86909509
O 4.39027450 -8.20589578 -3.73512557
O -7.74764934 -1.21531227 -3.85008130
Pu 1.37085512 -1.56853359 7.21376507
O -5.62950355 4.94056084 -6.55235659
O 1.36171470 -5.92890407 -3.73120975
Pu -1.66311051 4.54425643 -4.83036557
O -8.27444472 -7.09640510 -0.52050368
O 2.68303499 5.04860449 -2.60466522
Pu -6.31526912 2.23872486 -1.38248920
O 7.98030555 7.82271284 -1.17812176
O -2.85005917 -4.51470302 6.58351432
Pu -4.61323366 -7.68557317 2.58014108
O -1.36262419 -9.21270228 -0.99824350
O -0.50898839 -3.43106204 7.73339000
Pu 9.96372950 -1.27237959 1.06114373
O 5.39930652 0.34930459 5.44748811
O -3.66843554 -9.65466936 -1.89528668
Pu 2.81728739 -4.54722407 -7.20013491
O -5.00186847 2.81005787 -3.08381160
O 5.24145016 -8.49977530 -1.45039811
Pu -4.55837076 -4.16165353 -3.58689815
O 1.37785114 -3.85828381 -8.59063029
O 8.39953027 -3.51733174 4.87127796
Pu 4.54011888 4.21689570 5.43880775
O 0.71385252 4.41748966 -4.19284909
O 3.27832536 -5.83018653 4.71296919
Pu -3.56922434 -4.95101678 3.68735747
O 6.98411566 2.51425391 0.47601689
O 3.25615031 -9.21950113 0.17979005
Pu -0.06289522 -2.83912383 -7.72029001
O -0.74616508 9.89218092 5.33422329
O -6.19783293 5.49463736 1.19008838
Pu 7.49711150 1.16083771 -0.95480053
O -0.54007880 -4.29612630 9.91962568
O 8.38851519 -0.60676087 -0.46882965
Pu 0.94881007 -4.99426304 8.41385503
O -3.03589046 -5.70950780 -7.81651806
O -3.78583120 -2.00871320 5.75830713
Pu -0.96224099 0.83684712 3.07164247
O -1.87044429 2.42197416 -4.13330576
O 2.17968913 -3.33992940 7.55523729
Pu 9.48440750 -4.19048727 3.08142718
O -1.06568333 4.19459484 4.10751452
O 4.73308036 6.44039832 5.93466279
Pu -3.21151750 -3.87817843 -6.98065361
O 1.74400335 4.69385617 -6.42995589
O 0.92486389 -9.85453054 -2.17970552
Pu -1.04740899 -0.43557429 -9.85207896
O -1.36196053 -6.51057639 -5.65300876
O 9.10079101 2.40506028 -0.50090659
