420
ML-kMC step 7000
Pu 1.45911086 5.21115762 3.97396863
O 1.74959465 1.49919649 6.55363815
O 4.90384543 -2.79428618 -3.74851331
Pu 2.29945452 3.20755102 -4.81379497
O -5.24873233 7.85919411 2.47549613
O 8.76964048 -2.29082268 -3.40109712
Pu -7.44503538 5.63980748 -0.59726326
O 3.20623680 -11.28473635 -1.72603704
O -6.21472720 -3.39597327 -4.65626140
Pu -3.81323795 3.48502592 -7.02954899
O 0.99022981 -6.08086673 6.13504082
O 4.43507626 6.44892294 7.92184597
Pu 4.98919861 -5.62063437 3.39349616
O 2.31202657 2.54909819 0.56406213
O 5.54480864 5.63412050 -4.12620422
Pu -1.64501870 4.96055608 5.89994456
O -5.25425904 0.78034456 -5.07823718
O -4.44697781 1.22554294 -1.35945201
Pu -5.11473631 4.88595921 -3.39856026
O 6.76397608 2.20574996 -2.35931000
O 3.40247682 -0.56063543 3.18913357
Pu 1.69777097 3.88811276 7.30382931
O -4.66103403 1.58385806 -7.35930534
O -6.33223090 7.21789839 -0.52989036
Pu 0.20031881 -5.01562912 -9.96198126
O 1.94613871 6.91776898 -2.13582007
O -4.80742185 3.18277421 7.12434873
Pu 5.36011201 -3.74233612 -1.16529519
O -1.64884822 2.44188512 1.88712721
O -0.29458820 3.70404286 7.05328322
Pu -0.58634891 6.72307506 1.45510975
O 3.89869118 -5.61925018 1.73991899
O 0.84677029 3.85720814 5.28099755
Pu -3.74994390 -0.19374804 -7.64924579
O 1.66589917 -6.06973023 -6.31174339
O 0.50010259 8.20663934 -4.54196880
Pu 0.21346566 3.28773245 0.71139613
O -2.37050820 4.18235244 -8.12359974
O 4.44325325 -3.21276720 4.03285287
Pu -0.15369787 3.30881234 -8.17883093
O -6.93064234 4.82844873 6.92667940
O 0.77770701 -1.24793158 -8.73856836
Pu -3.33203739 -7.08515095 -6.15557164
O -3.80144626 -5.31429705 -5.12646502
O -5.32460750 -5.87903979 3.80860022
Pu -1.27378603 -5.83615379 5.70309437
O 5.72611180 2.54571866 6.59337393
O 0.88722253 -10.20960339 0.58170872
Pu -3.02123306 7.53400056 7.27507330
O -1.98965139 1.46454151 4.60532042
O -8.31755261 5.51505345 1.33057076
Pu 4.95798057 0.89070838 -6.60221983
O 2.76809738 -5.35804587 7.47325707
O 0.55609205 6.73410048 3.13504322
Pu 3.82448939 1.12163228 6.74837498
O -3.55070548 -5.90535725 -2.76455520
O -8.74257940 -4.30372955 0.06315297
Pu 6.76043749 -2.44053962 1.89788311
O 1.20722473 3.41816340 2.56644968
O -0.82092587 6.80568783 -2.17837862
Pu 0.39454324 8.55615015 -2.52544711
O 5.14629697 8.33812405 0.84863330
O -5.92279669 -6.47266371 1.37912778
Pu -1.84030751 6.26531021 -8.10665315
O 4.05953996 6.49617049 0.43300844
O 4.06735916 2.40607689 -9.48566442
Pu 1.72066370 -7.35213714 4.75545610
O -4.11632110 2.60244012 2.31653185
O 1.76652766 9.15488533 -1.32752128
Pu 2.40509161 -4.32519786 5.72855700
O 2.89556800 -1.03239399 -9.76143310
O 0.11008656 -5.62937691 -8.13982570
Pu -8.51663505 4.42197590 4.82806810
O 9.45247626 0.87852926 2.21821950
O 4.33020475 -3.02557275 -7.00046907
Pu -0.98990889 -6.11415315 -3.62499646
O -8.25357254 6.45279706 4.22469888
O -6.81993122 5.84563030 -3.79252257
Pu 5.03279648 5.84699776 2.23662273
O 3.90020277 4.36599434 1.49664294
O -7.87775445 3.25389146 -5.15459634
Pu 10.35668873 3.02564513 -1.90056261
O 6.40293517 4.74530613 5.97601620
O -1.84756355 5.61451181 7.87801490
Pu 3.26181963 1.46121749 -0.81428954
O -0.24011233 -1.33720182 -5.79456779
O -5.36342391 -3.53236365 4.77696629
Pu -0.95832289 0.77110423 -5.60336218
O 3.38370000 5.37683799 3.69541719
O 2.98723098 6.89280303 -4.74436034
Pu -9.48128588 0.95862817 6.42578825
O -8.78452453 3.04703179 6.42104241
O 9.56557735 2.78117234 -3.76315561
Pu -9.03474706 3.56597040 1.48712963
O 4.86146414 5.64832430 -1.43400525
O -3.35395382 3.83907055 4.88799984
Pu -8.91757550 0.12846890 0.64264399
O -9.83681971 4.01695713 3.32048201
O 1.61628718 -8.27909589 -5.69564314
Pu -8.13571598 -5.28263125 -1.83314513
O -2.41265693 -0.49366512 -0.01032049
O 1.49763175 3.60266373 -9.62877815
Pu -1.63788630 -2.56453530 6.00299738
O 4.15251818 1.41582882 1.32833222
O -3.82350405 6.15934370 5.97909030
Pu -4.43243129 7.14739384 0.47479562
O -3.01045757 0.32322271 -5.81097361
O 6.04837312 4.53558152 3.60002640
Pu -0.36378201 7.92042645 4.43201434
O 0.63345692 3.84069544 9.08514261
O 7.44516676 2.15318824 2.93167527
Pu -5.27000693 -0.99001170 5.26207872
O 0.75940528 0.42747831 -10.44706649
O 4.51631357 3.02045579 -1.25851671
Pu 6.58184903 -1.25590990 -3.77661786
O 6.88690370 -4.91222726 -1.55532972
O -2.32363519 5.98203884 -5.87953132
Pu 1.96169647 -9.01313540 1.96731593
O 6.30298083 4.88382613 0.93069866
O 10.22187285 0.89238612 -2.13448012
Pu 8.94956135 2.87862101 1.48812907
O 6.50534995 -4.39817931 2.19644281
O -1.48327950 1.46144401 7.12806424
Pu -3.43911923 -1.21799293 -1.80464373
O -0.41353268 7.34202705 -6.79620378
O -0.66984201 -1.61261448 -11.15360160
Pu 1.34004795 6.39630454 -5.74630253
O -8.88215140 -4.97080065 -3.78625339
O -0.59767895 -11.63590477 -2.10180252
Pu 2.16737891 -2.35858318 -1.07348841
O -7.63131283 0.83065912 -0.94417553
O -4.13395040 -3.65524873 8.89112149
Pu 3.60496803 -9.30938866 -2.01893967
O 6.45416804 -4.48957554 -7.02256799
O -0.75156017 -4.42325259 -2.78395998
Pu 3.12479722 8.28933487 -0.04502055
O 7.91745921 0.26448227 -2.88712016
O 4.20627122 -5.74189333 -6.09955400
Pu 2.87677174 -7.02074072 -4.87349786
O -3.64190207 3.81496455 -4.85609775
O -9.55078475 -0.49416936 -1.16214798
Pu -3.10151679 7.47086429 -2.30289305
O -0.03236869 -5.16190756 1.86273469
O 4.70446487 4.91145911 -7.40110021
Pu 4.73481030 -7.44288934 0.60359626
O 0.81685287 1.68590028 -4.55413248
O -3.56414398 3.51678886 0.03266717
Pu -3.75946390 1.32548301 -3.73151327
O 1.36682887 -4.04329324 -11.15558569
O -5.76340160 -7.44099016 -1.95898873
Pu 6.80698396 -3.68730323 5.90732549
O -4.51118303 -2.01748849 -7.33487922
O 6.17404338 -1.92088053 6.37267111
Pu 6.50015535 6.56805375 7.22560538
O -1.16421114 4.64855937 0.93495636
O -7.88491509 1.22246716 7.84345100
Pu 7.66681088 3.32077956 6.88373951
O -2.33650086 -8.10628677 -3.96850867
O -2.24653224 -2.08696466 7.90160903
Pu 5.72818030 3.87865145 -2.56817397
O -9.94771548 1.74093694 0.96433354
O -1.22622163 -3.69415987 -6.19940680
Pu -0.48909728 -3.40428946 3.01885940
O 6.51217186 -1.38031077 3.61835569
O -4.24222830 5.79681480 -1.40622029
Pu 2.50860204 -2.15328156 2.33073622
O 3.34608997 8.67339687 6.09497993
O 4.83520845 -0.01417816 -3.61257603
Pu 2.66860752 1.93469338 2.77258219
O 1.86886412 -2.79888914 -6.40554943
O 7.82802689 1.63786602 7.86274580
Pu 1.32813650 -11.49988547 -1.07041649
O -7.56585345 1.90466157 2.06374421
O -0.16369882 -8.22823897 1.18836479
Pu -6.38218880 -8.04161998 -0.02086712
O -6.98458969 -0.36178139 -6.41758048
O 2.82496494 -3.41422728 0.91110247
Pu 6.29202593 -2.53220065 -7.27133422
O -4.55007704 -7.92109096 -4.90021997
O -0.18218153 -2.25420409 -1.33236711
Pu 6.04091088 -6.80166914 -2.45147931
O 6.61632918 -7.18578294 -0.18060225
O -7.81399926 -5.52793719 3.06859118
Pu 3.14783797 4.74625311 -0.43749939
O -9.41164623 -1.39139773 -3.45571201
O -5.42216695 -3.54664099 1.82921333
Pu 0.09667998 -7.35301593 -6.77475523
O 5.35059923 -2.43641456 0.32677834
O -5.16933925 1.12484080 5.16966419
Pu -4.95083207 -3.72962510 7.05838961
O -2.28322967 -5.75948552 -0.32540332
O 1.43615032 2.22671544 -7.40269942
Pu 5.75959870 3.02263498 2.01690203
O -6.22344251 -2.10237091 6.77400742
O 5.01871926 7.55853359 3.28468781
Pu -3.14620088 1.59072163 0.35428941
O 1.18443347 4.74586722 -0.47051446
O -0.22852188 -3.01236096 0.98037464
Pu 8.08674708 0.40433369 3.70091438
O 4.39935180 2.77258383 3.68949101
O -0.37497072 6.05614066 -4.56156727
Pu -4.28706286 -5.36559913 -0.24697356
O 1.81510553 -3.63435974 3.44454994
O -6.66692895 4.22565969 -2.04602091
Pu -1.83202186 -0.12754377 8.41890073
O -6.36410202 -0.65327027 3.44970952
O 8.12405846 -0.21888313 5.54113148
Pu 1.95843931 -0.72283187 -7.21228859
O 6.84147762 0.31484703 -5.30460435
O 2.24860047 -9.13109092 3.99650344
Pu 7.95558603 1.80567632 -4.42295881
O -3.40067992 -5.83994095 1.86069738
O -0.28257527 5.19434817 -8.78595434
Pu 2.73042756 7.00448204 6.80849632
O 4.97787514 -0.01754785 8.05487164
O -0.35138030 -1.11134337 2.60890077
Pu 8.53064986 -4.22274676 -2.73376166
O -2.58158929 5.40190951 -3.00511896
O -2.33433144 0.76664650 -2.01993882
Pu -5.21395820 4.77455109 5.57926294
O -6.35898569 -5.20940262 6.60418992
O 1.59907168 6.94401633 0.77257228
Pu 5.55747604 -4.57627685 -5.02445192
O -0.16491735 -1.10435422 5.71430810
O 0.27339828 -0.35792997 8.42452368
Pu 4.24507173 6.83303744 -3.20612946
O -2.61352254 3.55694432 7.12670381
O -6.31410001 -5.12004601 -0.69536277
Pu 2.44896193 1.01469151 -9.66386841
O 1.62288599 -1.07500452 0.70627031
O -7.55730020 1.41539261 -3.20738242
Pu -0.51104973 -2.41555353 -3.91581119
O 6.75560797 8.20309369 6.22868238
O 8.78830100 4.59625852 2.57896400
Pu 7.95607506 4.74710199 4.29606559
O 10.54613328 -1.62921035 -0.71668817
O -2.22359999 1.59127682 9.41617967
Pu 1.91842346 -5.45048224 1.27946917
O 0.41277729 -6.33358632 -0.17294456
O -9.88251693 -0.95531367 7.03012355
Pu -6.80520607 2.76391030 7.36304532
O 8.26819809 5.59529125 6.34176231
O 1.56412350 1.74521414 -2.04234449
Pu 9.55788130 -0.90517084 -2.20163026
O 1.70928722 -2.13235896 -3.22668601
O -4.36378807 0.14803715 1.43619927
Pu -7.08810375 -1.22814694 -1.94073162
O -4.85830418 -0.73860644 -3.33803576
O -1.41571430 3.02462441 -6.30250694
Pu -5.56425452 -1.45993701 1.27704117
O 4.82693298 -5.74072409 -0.88598871
O 8.55374062 2.89364745 5.13159532
Pu -9.52666233 0.48016892 -2.86588557
O 9.19220032 -5.38805766 -1.11489815
O 3.27285316 -0.53324905 -1.53312551
Pu -6.99215453 6.66737247 2.74179606
O -1.68590637 8.77207399 -3.37351395
O 2.34724373 -7.66492201 -2.13696953
Pu -2.10569576 -3.87596331 8.87548190
O -3.41828042 8.47793352 4.93936690
O 4.49415828 8.02690753 -1.66771355
Pu -8.29593089 -3.05483336 -4.40711645
O 10.74801110 2.89889483 0.19357591
O -9.00478683 1.18309257 4.50835486
Pu 3.27745449 3.71353110 -8.12938279
O -0.94408332 -5.73670717 7.82157280
O -2.83695552 -6.47905860 3.94630696
Pu -8.41688205 4.08575550 -3.43060261
O 2.69280305 -7.02718523 0.03709433
O 8.48176051 -1.62159078 2.58753496
Pu 1.41525068 -2.04863993 -10.62040141
O -4.27794806 6.86027640 -3.92344184
O -8.02378822 -3.37889169 4.87497858
Pu -1.49731664 3.39025058 8.77894121
O -4.21602053 -7.72382183 -0.15898047
O -1.99805985 -1.74589189 -8.13564615
Pu -2.32899288 4.91819763 -0.96851823
O -1.25687860 8.35869548 2.56390879
O 4.12832087 3.49292061 -4.21603458
Pu -3.42849284 1.96870039 6.10176938
O -4.16982688 -3.63258941 -1.44984702
O -0.66320847 -0.29223937 -3.43134906
Pu -1.19447182 -6.79820960 2.28566931
O -1.74366300 -4.21930385 4.46991513
O -7.38625494 -0.20589422 5.54148170
Pu -0.17623463 2.14610653 5.64465203
O 0.21209720 -4.12851287 5.24270628
O 4.92550183 -7.53215079 2.61337740
Pu 3.37122691 -1.33744485 -4.06029325
O -6.76277318 3.01881881 5.15713632
O -5.37228843 -1.33413097 -0.89610553
Pu 6.83670026 0.03620380 7.09819885
O -3.80539662 5.75492305 1.94809904
O 4.40267249 -5.63340336 -3.41391224
Pu -7.02636037 1.29035670 3.92516651
O 0.93166100 1.20891195 3.81768192
O 5.94706405 -0.60092443 -7.59739431
Pu -8.22975001 -1.88383847 6.25209167
O -9.05194314 4.60067768 -1.37290226
O 8.31699058 -3.53670363 1.21599021
Pu 2.70306815 -5.69372806 -1.76038615
O 10.81391042 -2.85418346 2.53933971
O 6.63952246 -2.73801542 -5.28438787
Pu -1.42316194 8.02765776 -5.27015622
O 7.12218247 -2.72358248 -2.12349700
O -9.81788963 2.43815556 -3.35221082
Pu -3.93019164 6.94078907 3.83423513
O -1.54088435 6.99994014 5.79696928
O -0.46835921 -3.21669769 -9.36836328
Pu -5.60925920 -1.40515936 -5.26674887
O 3.42812999 -0.49602908 -5.83515069
O -3.47479332 -0.04954324 6.82060859
Pu -2.74390967 -9.18055622 0.28852792
O -4.02955686 6.03712659 -7.54815585
O -7.52330947 -3.20701016 -2.37340673
Pu -4.06252276 -7.78490570 -2.89095908
O 1.44770720 -4.34281358 -0.62771423
O -2.23873848 6.69371133 -0.08690069
Pu -5.77857240 3.75832203 1.92584695
O -0.36222680 -7.91164740 -2.84397257
O -5.80419932 6.54449932 4.59123569
Pu 7.89671131 -5.54468137 0.43366707
O 3.91581013 2.76671948 -6.23483035
O -3.06074806 9.54545232 7.18060658
Pu -0.44596780 1.67240250 -2.50267141
O -2.52941130 -3.19242049 2.41016347
O 3.20736308 -0.99369782 5.92242439
Pu 5.10070607 8.42390839 4.97543247
O -7.32285193 4.23861809 3.14035538
O -3.65977614 8.55128948 -0.72970513
Pu -2.83003094 4.06803943 2.94005433
O 1.62276245 -7.07961908 2.65054543
O -7.47236999 -1.24260099 0.43158062
Pu -6.95558916 1.57486549 -5.67188672
O 7.06344924 3.71792931 -4.27112455
O -5.40178444 -8.95879503 1.64506362
Pu -7.20936930 -4.78607423 1.28220025
O -2.33373395 1.03892491 -8.61875270
O 7.14559999 -5.49573629 -3.81222555
Pu -1.15825899 -9.73025788 -3.02315687
O 2.59678277 5.16367509 6.04782138
O 0.03347606 0.43421373 -7.44746428
Pu 0.61685974 -8.14275674 -0.88581425
O 3.56290887 -3.67757468 -1.83223102
O 6.04588939 -5.17835195 4.94843486
Pu 0.71441735 5.38705105 -2.45134241
O 8.77883988 -5.88496940 2.14018558
O -0.30663070 1.05476293 0.63188018
Pu -2.79732127 10.31447701 5.22989354
O -1.70315849 -8.07863257 -7.04427743
O -2.51152728 -2.55121857 -3.17664485
Pu 6.08640295 6.91446508 -0.48076054
O 3.43699985 0.80589656 -7.99511760
O -3.16515192 8.34188702 -6.30936548
Pu -0.42809973 -1.07394368 0.52832433
O -2.75138529 -8.53010898 2.28019955
O -0.32363241 -7.19343056 4.35904000
Pu 5.75638736 4.16579270 -5.71517509
O -0.76246190 3.41138411 -1.42252842
O -4.86243854 4.70018756 3.53668233
Pu -0.68695834 -4.51648383 -0.45752650
O 6.54613908 2.41769547 -6.25696005
O -1.99494565 6.05846222 3.34608252
Pu 4.80719727 -1.28915085 4.46008865
O -3.90194222 -2.75526038 -5.21996705
O -7.04229479 3.46329330 0.27744083
Pu -4.52452037 6.74820607 -5.83075548
O 3.53717356 3.19778100 6.84684700
O 0.93373533 6.94312703 5.80730100
Pu -6.95834039 -4.96268478 4.78284939
O 4.48113455 -7.93982639 -3.69924985
O -7.32777979 -1.24787322 -3.97230818
Pu 1.37768762 -1.51745963 7.20970091
O -5.39022593 4.81221095 -5.87915868
O 1.55124815 -5.89663193 -3.56847172
Pu -1.69086220 4.48523312 -4.71090720
O -8.05101464 -6.85466967 -0.32128715
O 2.61948377 4.90719315 -2.67863956
Pu -6.38535009 2.21306408 -1.43898241
O 7.76116477 7.28020592 -1.30521914
O -2.79530856 -4.63856741 6.64430540
Pu -4.59685391 -7.48790837 2.72467889
O -1.32146357 -9.12605861 -1.01673710
O -0.36494331 -3.39030689 7.67100514
Pu 9.96486083 -1.32092345 1.28896192
O 5.55901970 0.36045201 5.35486287
O -3.48799624 -9.68836088 -2.15202560
Pu 2.84709828 -4.55187378 -7.14699934
O -5.12606875 2.77136528 -3.12372031
O 5.32715112 -8.45934593 -1.35360279
Pu -4.42343309 -4.17567123 -3.62341141
O 1.71803812 -3.72092185 -8.66119368
O 8.40854305 -3.55510406 4.71447697
Pu 4.52881713 4.18833233 5.23123340
O 0.55287483 4.19479095 -4.28117673
O 3.23932355 -5.91527004 4.67737954
Pu -3.76824134 -4.49232401 3.62056188
O 7.01620409 2.37257317 0.66955652
O 3.19436668 -9.31940591 0.19692988
Pu -0.10766112 -2.80673115 -7.46556147
O -0.59036136 9.94416202 5.17966305
O -5.95822412 5.66462758 1.18546865
Pu 7.47207056 1.10941645 -0.87959502
O -0.25632983 -4.03895598 9.93657298
O 8.34951668 -0.64589203 -0.22180111
Pu 1.13518960 -4.98653078 8.55414693
O -3.43072149 -5.58372736 -7.77538243
O -3.61511550 -2.30719109 5.59672127
Pu -0.96524752 0.85633532 3.08188974
O -1.95751417 2.29855007 -4.27235485
O 2.30019316 -3.26704613 7.43761275
Pu 9.24460802 -4.05480530 3.05189352
O -0.92321289 4.15840115 4.10525713
O 4.85768633 6.25974030 5.65343891
Pu -3.18193839 -3.85898169 -6.93796297
O 1.85368812 4.52524615 -6.68661492
O 1.12926328 -9.76920254 -2.19375819
Pu -1.12473892 -0.31403658 -9.63123228
O -1.26911075 -6.43877295 -5.59091036
O 8.66526553 2.80795828 -0.74236551
