420
ML-kMC step 1500
Pu 1.42724690 5.23793109 4.01913595
O 1.77706518 1.63045840 6.45630160
O 4.68283668 -2.85958087 -3.99270553
Pu 2.34959597 3.24871294 -4.93755978
O -5.29169879 7.89343024 2.37179263
O 9.14636667 -2.20706594 -3.56497556
Pu -7.44436445 5.60946896 -0.44694245
O 3.03569553 -11.38730068 -1.89697319
O -6.50775510 -3.10076364 -4.69334838
Pu -3.75360224 3.54761402 -7.17529220
O 1.31912419 -6.55701030 6.20053341
O 4.55497398 6.54480219 8.34882187
Pu 5.01801522 -5.65552982 3.40414213
O 2.32390242 2.79097489 0.26848694
O 5.44688382 5.68717238 -4.30734273
Pu -1.54557219 5.05446723 6.03347762
O -5.50364601 0.92792917 -5.11506015
O -4.52371445 1.24604633 -1.34046099
Pu -5.26608385 4.91917561 -3.38574802
O 7.17043432 2.32686181 -2.58395423
O 3.61650594 -0.56008031 3.07913115
Pu 1.73336989 3.89443336 7.63655151
O -4.31547260 1.54952353 -7.48530047
O -6.03814956 7.06776987 -0.85443093
Pu 0.22704896 -5.04775019 -10.02742146
O 2.11043155 7.35281637 -2.37134408
O -5.24554011 3.24385516 7.30093464
Pu 5.79434826 -3.46555818 -1.08168224
O -1.43843898 2.44185055 2.02766895
O -0.34465720 3.76793376 7.21543574
Pu -0.72600485 6.97146295 1.48145640
O 3.94754986 -5.50071054 1.76211603
O 0.89628351 3.96612150 5.49854502
Pu -3.41815761 -0.42228687 -7.80576681
O 1.43918679 -6.00703405 -6.15747074
O 0.59938944 8.40763551 -4.48120568
Pu 0.30742029 3.27907356 0.69862993
O -1.97882163 4.09689039 -8.32210096
O 4.71732532 -3.32252512 4.10522241
Pu 0.01229581 3.72531882 -8.60467818
O -7.07951685 5.16498260 6.75985245
O 0.87303267 -1.30737704 -8.98471569
Pu -3.41359884 -7.12180715 -6.12165728
O -4.25976287 -5.23442117 -5.32489799
O -5.47176525 -5.42925897 3.90105052
Pu -0.84366772 -5.93474533 5.78785574
O 5.80459241 2.51421870 6.63027937
O 0.80768370 -10.48630983 0.51643992
Pu -2.94830453 7.72105803 7.32714299
O -1.96151121 1.71484899 4.81669929
O -8.96908443 5.69887468 0.78927842
Pu 4.88625386 1.01050672 -7.00089219
O 2.70268407 -5.44051505 8.01496869
O 0.40036280 6.80747308 3.42490855
Pu 3.94240901 1.06416653 6.90321599
O -3.59788683 -5.98721434 -3.00768848
O -8.74888545 -4.23028590 0.17690081
Pu 6.89254527 -2.45456281 1.95799610
O 1.23912700 3.59140513 2.61730020
O -0.72656501 6.97829141 -2.22090617
Pu 0.43068495 8.79926123 -2.57897741
O 4.84502277 8.43225815 0.86722416
O -5.90171421 -6.51584388 1.28757830
Pu -1.75306261 6.42958167 -8.13681085
O 4.30094314 6.35656956 0.21819320
O 4.06024687 1.92614542 -9.41942900
Pu 1.92573636 -7.48023085 4.54242592
O -4.12430952 2.52465616 2.51862746
O 1.44650498 9.26417881 -0.93789818
Pu 2.57736843 -4.57023525 6.10074412
O 2.70633167 -1.09787863 -9.87811340
O 0.41819095 -6.58147887 -8.72243237
Pu -8.62955751 4.58306553 4.95395955
O 9.49287685 0.73157491 1.87217697
O 4.40298811 -2.87452166 -7.53277603
Pu -0.93211746 -6.34028391 -3.60357080
O -8.50113612 6.51841698 4.24052490
O -7.06504063 5.33464449 -4.06727115
Pu 4.97663203 5.81457185 2.22266888
O 3.90191233 4.36519817 1.50004037
O -7.95950603 3.22508135 -5.40002437
Pu 10.93948842 2.86079939 -1.25649517
O 6.47601245 4.80871553 6.16571097
O -1.80512734 6.10167525 8.00414538
Pu 3.31224777 1.40930522 -0.81237284
O -0.27972827 -1.51628095 -5.94424958
O -5.58415364 -3.25582288 5.18394228
Pu -1.08285244 0.96987515 -5.57957654
O 3.56218048 5.27089920 4.05718670
O 3.08415512 7.36385315 -4.85512217
Pu -9.72642375 1.21542360 6.81880344
O -9.03652995 3.25337455 6.68423576
O 11.10352459 3.36378933 -3.10393155
Pu -9.07568525 3.43539314 1.23600405
O 5.42041892 5.72887370 -1.81647589
O -3.26596957 4.08839483 5.39431127
Pu -9.21844138 0.08802569 0.76174749
O -9.54839098 3.86354677 3.20076092
O 1.57845562 -8.54509643 -5.84323691
Pu -8.27722331 -5.12342095 -1.52557971
O -2.27260430 -0.31738502 -0.32242285
O 1.92511833 4.68180820 -9.23726274
Pu -1.80800228 -2.71873537 6.18931464
O 4.48752238 1.55923525 1.64279940
O -3.86307902 6.36217169 6.03060170
Pu -4.52926156 7.08571220 0.51514685
O -2.96840662 0.14327843 -5.66397651
O 6.19213912 4.74358022 3.53212523
Pu -0.43033862 8.20415125 4.52581442
O 0.56824533 3.72533915 9.28873244
O 7.66163046 2.12171496 2.78922595
Pu -5.58764130 -1.02940140 5.34474768
O 0.52156901 0.56602083 -10.70492040
O 4.56431217 3.31976156 -1.19028008
Pu 6.62173412 -1.18900948 -3.67722343
O 6.92932839 -5.16461176 -1.41780031
O -2.31410300 6.10754121 -5.96411681
Pu 1.96902908 -9.15958248 1.72270369
O 6.46301218 5.18133281 0.91345589
O 10.33784501 1.13257167 -2.12107567
Pu 9.26218912 3.04843604 1.58257526
O 6.70054092 -4.53343730 2.47089079
O -1.06553260 1.36180621 7.40813965
Pu -3.43609924 -1.22311947 -1.96316245
O -0.23090129 7.66798539 -6.88899804
O -0.49750078 -1.60988961 -11.62455125
Pu 1.48594529 6.94889290 -5.91116763
O -8.60343377 -5.20640175 -3.49888782
O -0.58519754 -11.86230569 -2.23204584
Pu 2.29989581 -2.63204242 -1.32876128
O -7.91062174 0.61215208 -0.89013431
O -4.23466782 -3.80264962 9.02288455
Pu 3.57846004 -9.47070504 -2.18949414
O 6.56286125 -4.20223014 -6.75149659
O -0.65392449 -4.56657374 -2.54400299
Pu 3.07437427 8.37858684 -0.09652514
O 8.17883817 0.08943310 -2.92097146
O 3.91031524 -5.80761941 -6.35411911
Pu 2.86442602 -7.11531564 -4.94606330
O -4.17209956 4.10086475 -5.17562591
O -10.05728847 -0.40720080 -1.08080135
Pu -3.18739560 7.50753434 -2.38574159
O -0.19667112 -5.24553065 1.83453546
O 4.93712977 4.83601990 -7.59285745
Pu 4.69191424 -7.45831413 0.33338533
O 0.68867919 1.78084421 -4.49124121
O -3.19817473 3.65217110 0.25877668
Pu -3.90765123 1.40028346 -3.99527275
O 1.49759675 -4.06520626 -11.24915201
O -5.44007279 -7.13646802 -1.41735299
Pu 6.91191253 -3.73843343 5.93254420
O -4.57363004 -2.18049506 -7.37195704
O 6.41879024 -1.85887860 6.40441006
Pu 6.56339252 6.50423916 7.24429014
O -1.00338129 4.90243689 0.91023097
O -8.04359398 1.58132323 8.12666511
Pu 7.79244672 3.26804588 6.97854641
O -2.37508433 -8.25537374 -3.81282949
O -2.31365273 -2.06628792 8.31339788
Pu 5.99364293 4.06756491 -2.65379135
O -10.04441227 1.80041252 0.95832014
O -1.18128535 -3.79009218 -6.31659909
Pu -0.61709085 -2.99064657 2.98770495
O 6.61593525 -1.32434476 3.71821494
O -4.15078249 5.75330846 -1.49113995
Pu 2.68789360 -2.23172629 2.38543556
O 3.56473902 8.92184330 6.11107999
O 4.82002469 -0.17815303 -3.22125537
Pu 2.94005329 2.17624857 3.07920168
O 2.22183874 -2.84665259 -6.48337249
O 7.92253232 1.59747616 7.96691611
Pu 1.09951332 -11.65059804 -1.18031343
O -7.40083437 1.90862982 2.21118604
O -0.03814341 -8.32284920 1.11073054
Pu -6.49962270 -8.06986465 -0.04862263
O -7.10042474 -0.42899662 -6.37647528
O 2.83599886 -3.67413713 1.03455758
Pu 6.46382526 -2.30031053 -7.21616096
O -4.73598001 -8.02616131 -4.78805687
O 0.22282143 -2.30386322 -1.21322832
Pu 5.90351032 -6.73309271 -2.67112083
O 6.57402259 -7.08710119 -0.04714625
O -8.06328687 -5.14123385 3.16805655
Pu 3.20261534 4.82751945 -0.40566295
O -10.05489157 -1.99354412 -3.81277033
O -5.60426935 -3.47013377 1.34233944
Pu 0.06580925 -7.50443722 -6.96853294
O 5.66749104 -2.11626712 0.41737925
O -5.51968230 0.98823932 5.26209316
Pu -5.08604698 -3.74809556 7.17805168
O -2.17343466 -6.07051081 -0.01362664
O 1.42993366 2.37264036 -8.68041056
Pu 6.01578694 3.08060560 1.96194528
O -6.48452425 -1.92091985 7.07789236
O 4.78178770 7.39663037 3.40606408
Pu -3.35429966 1.55315495 0.37943603
O 1.20262425 4.97063110 -0.55912462
O -0.23361474 -3.05110467 0.92160590
Pu 8.36935422 0.35045837 3.63774918
O 4.62671940 2.87386872 3.80919706
O -0.44044648 6.45274471 -4.72750670
Pu -4.34248485 -5.61841835 -0.32300429
O 1.49706642 -3.61190416 3.44709187
O -6.50569227 4.27260574 -1.77506450
Pu -1.73590950 -0.16261023 8.50423624
O -6.53299499 -0.80402962 3.35899100
O 8.80868840 0.21191528 5.60133901
Pu 1.99107962 -0.97604814 -7.15183927
O 6.49991025 0.50443264 -5.04701498
O 2.44790334 -9.18252366 3.61887488
Pu 8.06831425 2.03137734 -4.46903432
O -3.72214453 -5.91333883 1.88393131
O -0.25130133 5.62895180 -9.08170725
Pu 3.03792389 7.14200782 7.01287110
O 5.21692909 -0.07124579 7.97471358
O -1.23178111 -1.03546463 2.45255497
Pu 8.61529766 -4.17213341 -2.82553513
O -2.53769048 5.34343415 -3.10546278
O -2.44489378 1.10846723 -2.18335435
Pu -5.31741508 4.84446434 5.71669402
O -6.08480909 -5.52263647 6.66548662
O 1.58267040 7.31005638 0.96192215
Pu 5.57602573 -4.44564105 -5.04481753
O -0.31710293 -1.32672689 5.92988961
O 0.59762955 -0.49117804 8.81649087
Pu 4.19604013 6.96252606 -3.22355711
O -2.72035664 3.34799772 7.36283548
O -6.29081627 -5.24304989 -0.69498955
Pu 2.28388864 0.92357655 -9.70386632
O 1.31603135 -1.13516375 1.40986834
O -7.33483009 0.97315102 -3.18552389
Pu -0.49483386 -2.61786639 -3.88316299
O 6.93881707 8.15063457 5.96738647
O 9.03424921 4.52411785 2.81058069
Pu 7.93393532 4.71151085 4.41371760
O 10.86324678 -1.67223880 -0.81694186
O -2.18575471 1.43027562 9.64458605
Pu 1.91842346 -5.45048224 1.27946917
O 0.31278579 -6.33508199 -0.44699869
O -10.00176680 -0.70922927 6.78268347
Pu -7.14229985 3.30416655 7.88357631
O 8.45258290 5.28897534 6.53511406
O 1.60876034 1.65342737 -1.97431349
Pu 9.98737912 -0.88068873 -2.46557584
O 1.64983659 -2.26076123 -3.42643031
O -4.85184149 0.49929392 1.25718583
Pu -7.08810375 -1.22814694 -1.94073162
O -4.87895596 -1.13939638 -3.50784072
O -1.70435460 3.20835388 -6.35844854
Pu -5.69061104 -1.48765962 1.25997671
O 4.55457586 -5.95997337 -1.30493045
O 8.06946249 2.75167366 5.12853766
Pu -9.43608850 0.30818614 -2.87204142
O 9.18401439 -5.15402172 -1.22749702
O 3.21946801 -0.68902106 -1.42492147
Pu -7.01617479 6.89803374 2.90880616
O -1.72665896 8.96397886 -3.36369615
O 2.24766000 -8.01111829 -2.08856135
Pu -2.29795324 -3.92774225 9.19001133
O -3.68662644 8.81416509 4.89185136
O 4.70730795 8.16502468 -1.74936466
Pu -8.47957182 -3.19576123 -4.09702231
O 11.11737590 2.89049722 0.79624714
O -9.36549623 1.27142609 4.65062504
Pu 3.44561156 3.60794510 -8.33853887
O -0.87064663 -5.74960889 7.87256933
O -3.20563328 -7.02416289 4.06902228
Pu -8.53635839 4.19418818 -3.57205370
O 2.69940296 -7.00363890 0.23988516
O 8.77667584 -1.54457171 2.58916859
Pu 1.38373205 -2.15440616 -10.88600182
O -4.40825706 6.84578093 -4.00494484
O -8.52203749 -3.68896721 5.47409061
Pu -1.38843491 2.98857411 8.83050919
O -3.94293016 -7.81305344 0.23408444
O -2.06587631 -1.78394926 -8.33670546
Pu -2.20059004 4.97340925 -1.00396703
O -1.59398385 8.73569058 2.93269384
O 4.34341907 3.70569986 -4.39411251
Pu -3.80807434 2.00402821 6.16710222
O -4.18625378 -3.75742865 -1.58854572
O -0.85564450 -0.45620205 -3.47472198
Pu -1.26468418 -6.86325762 2.18297032
O -1.73713915 -4.31889085 4.82698382
O -7.61284621 -0.46014085 5.27263193
Pu -0.17353190 2.13312250 5.64031056
O 0.47627164 -4.14564619 5.72299867
O 5.04699699 -7.49507864 2.42049142
Pu 3.30217113 -1.36564550 -4.09653844
O -6.98596952 3.03592740 5.21240811
O -5.34072701 -1.26112951 -0.97233954
Pu 7.08116989 -0.00548438 6.97773045
O -4.11589722 5.61005775 1.97687190
O 4.34312775 -5.78408294 -3.92641240
Pu -7.39723024 1.24584171 4.17803402
O 1.17900994 1.28539491 4.01009114
O 5.99532694 -0.43719023 -7.63197196
Pu -8.52932924 -1.92814972 6.27847506
O -8.86523313 4.61692080 -1.58783854
O 8.12455745 -3.42048714 0.73001043
Pu 2.56002659 -5.92190844 -1.89522253
O 10.55589984 -2.91974888 2.00960125
O 6.72337215 -2.42166518 -5.24681472
Pu -1.34517589 8.33695318 -5.29176486
O 7.15778889 -2.73718653 -2.45841863
O -9.51796969 2.35698267 -3.47164617
Pu -3.88661566 6.91521376 3.95492917
O -1.57822343 7.24872161 5.87588086
O -0.60953919 -3.16259169 -9.63303442
Pu -5.64231480 -1.40683210 -5.44880595
O 3.43256439 -0.41282768 -5.74398425
O -3.46132931 0.29849886 7.30027711
Pu -2.88730079 -9.55044777 0.22283586
O -3.76152424 5.89997514 -7.67501281
O -7.48843522 -3.14666815 -2.18307130
Pu -4.26430609 -7.90384241 -2.85604386
O 1.61457410 -4.54144773 -0.94192885
O -2.15782415 6.72656066 -0.09410310
Pu -6.01048572 3.65331704 2.20801388
O -0.27714953 -8.07742466 -2.86052015
O -5.81146974 6.53491410 4.67282383
Pu 7.83851237 -5.70524402 0.38279761
O 3.68087006 2.77176432 -6.46222528
O -3.05634936 9.82268567 7.08273962
Pu -0.49014544 1.72356612 -2.46744594
O -2.51470184 -3.57956681 2.74718476
O 3.25885038 -1.17924963 5.99955065
Pu 5.15570252 8.62069947 4.83475351
O -7.25747317 4.65942093 3.46620010
O -3.75242795 8.46098271 -0.76694025
Pu -2.83003094 4.06803943 2.94005433
O 1.39129413 -7.12338118 2.50152657
O -7.56909802 -1.20015951 0.62480757
Pu -7.27126209 1.51248538 -5.88035461
O 7.10041945 3.88560561 -4.37736744
O -5.75923958 -9.11212764 1.54601004
Pu -7.21008652 -4.82624828 1.30357698
O -2.13858005 0.75079715 -8.83392015
O 7.17416580 -5.35329246 -3.85414649
Pu -1.16662308 -9.90553896 -3.15553660
O 2.82240068 5.21816628 6.52561443
O 0.38431693 0.48333736 -7.14834251
Pu 0.43704610 -8.33508986 -0.90817593
O 3.98352296 -3.68365997 -1.98005564
O 6.10422277 -5.25978467 5.05144709
Pu 0.82207022 5.75453543 -2.74130390
O 9.01267241 -5.73883063 2.05033637
O -0.10150996 1.01115686 0.71258976
Pu -2.66760793 10.45053502 5.16482410
O -1.91291167 -8.35456957 -7.00754691
O -2.38237157 -2.63218546 -3.15136246
Pu 6.31693950 7.19889054 -0.50363562
O 3.26112005 0.43683784 -7.94963695
O -3.24031320 8.22162308 -6.11343533
Pu -0.52058770 -1.05684141 0.24893776
O -2.55640216 -8.65340331 2.04053992
O -0.46675361 -6.89009461 4.15175265
Pu 5.59263570 4.33094251 -5.83563907
O -0.76138801 3.36844990 -1.30093914
O -4.79691311 4.49738336 3.76770889
Pu -0.79384257 -4.67135488 -0.39963208
O 6.48965283 2.46620891 -6.34438014
O -2.09661230 6.34101011 3.38319997
Pu 4.81575952 -1.29019432 4.49846900
O -4.12438281 -2.93734091 -5.13891869
O -7.13487409 3.30407318 0.24592393
Pu -4.61155471 6.68541289 -6.15133575
O 3.58783513 2.96230666 7.04308274
O 1.09742293 6.98807790 5.90685462
Pu -7.12660732 -5.02651129 4.85091536
O 4.30935350 -8.10687981 -3.72949496
O -8.12804616 -1.10234777 -3.71880891
Pu 1.28608626 -1.49995867 7.35473349
O -5.63269677 4.96340922 -6.75297983
O 1.50176717 -6.16006384 -3.61365460
Pu -1.84646448 4.55027447 -4.86871262
O -8.14552052 -7.16436050 -0.65919357
O 2.86689439 5.05355340 -2.41822973
Pu -6.31526912 2.23872486 -1.38248920
O 7.89804831 8.06287852 -1.16476405
O -3.02447090 -4.35676708 6.78716043
Pu -4.59881696 -7.69526171 2.49602827
O -1.40579621 -9.27760913 -0.99898700
O -0.46652888 -3.42880132 7.86509487
Pu 10.03629548 -1.32506242 0.94661719
O 5.38363201 0.38070172 5.41740554
O -3.78293684 -9.62715798 -1.64476981
Pu 2.98869403 -4.41715072 -7.35900247
O -5.01612606 2.80653293 -3.07726907
O 5.33608218 -8.38466184 -1.58220512
Pu -4.74503125 -4.09552233 -3.61271027
O 1.39795057 -3.96378355 -8.77755761
O 8.38004472 -3.43963079 4.63006969
Pu 4.60256374 4.24552575 5.51878159
O 0.59330117 4.41662811 -4.33713056
O 3.27832536 -5.83018653 4.71296919
Pu -3.59153345 -4.97254642 3.74908828
O 7.16045965 2.67460298 0.29289232
O 3.15878212 -9.39177532 0.02308418
Pu -0.06289522 -2.83912383 -7.72029001
O -0.81022757 10.05532634 5.36887062
O -6.62835191 5.54227765 1.41686684
Pu 7.66471198 1.11018630 -0.84943200
O -0.51493067 -4.09067844 10.24260124
O 8.48584476 -0.79830869 -0.38825775
Pu 0.88497533 -4.88211808 8.81451045
O -3.21784957 -5.50586406 -7.87878200
O -3.60506556 -1.86610707 5.51536437
Pu -0.92893826 0.93314575 3.17342607
O -1.96868065 2.52234838 -4.14729998
O 1.91575765 -3.35257437 7.70897445
Pu 9.42601860 -4.10456012 3.02679287
O -1.01494198 4.26298455 4.19834081
O 4.91525850 6.68270276 6.05504980
Pu -3.27871952 -3.87402152 -6.78686723
O 2.06436356 4.66939877 -6.47290040
O 0.95522833 -9.98982156 -2.21001119
Pu -0.94922845 -0.55787436 -9.91967737
O -1.27515873 -6.52169530 -5.60403866
O 9.27258938 2.46780655 -0.30661486
