420
ML-kMC step 7500
Pu 1.45911086 5.21115762 3.97396863
O 1.74959465 1.49919649 6.55363815
O 5.04327914 -2.74908284 -3.69198698
Pu 2.24438314 3.12556648 -4.88387861
O -5.06718304 7.92717114 2.56566896
O 8.89164778 -2.26663850 -3.55918305
Pu -7.44503538 5.63980748 -0.59726326
O 3.20623680 -11.28473635 -1.72603704
O -6.11489395 -3.37302663 -4.61918292
Pu -3.81323795 3.48502592 -7.02954899
O 0.96157357 -5.96886075 6.05999582
O 4.50267033 6.43415157 7.92073082
Pu 4.98919861 -5.62063437 3.39349616
O 2.18391208 2.61040760 0.57935196
O 5.54480864 5.63412050 -4.12620422
Pu -1.64501870 4.96055608 5.89994456
O -5.25425904 0.78034456 -5.07823718
O -4.44290000 1.24217341 -1.39115802
Pu -5.05320522 4.87209026 -3.32165828
O 6.76397608 2.20574996 -2.35931000
O 3.40247682 -0.56063543 3.18913357
Pu 1.69776645 3.88811445 7.30378111
O -4.67308887 1.57631545 -7.34282315
O -6.33223090 7.21789839 -0.52989036
Pu 0.25480645 -4.96883239 -9.88612701
O 1.96188016 7.05806260 -2.13509638
O -4.80742185 3.18277421 7.12434873
Pu 5.31660158 -3.60559080 -1.13007119
O -1.64884822 2.44188512 1.88712721
O -0.31305615 3.71863987 6.93884128
Pu -0.58634891 6.72307506 1.45510975
O 3.89869118 -5.61925018 1.73991899
O 0.84677029 3.85720814 5.28099755
Pu -3.74797596 -0.19380164 -7.64735231
O 1.66589917 -6.06973023 -6.31174339
O 0.50010259 8.20663934 -4.54196880
Pu 0.21346566 3.28773245 0.71139613
O -2.29305854 4.17932902 -8.06223870
O 4.53832247 -3.27571260 3.96607481
Pu -0.15369787 3.30881234 -8.17883093
O -6.83398874 4.73423454 6.81878890
O 0.72490356 -1.22752218 -8.69284782
Pu -3.31633186 -7.05158902 -6.12256147
O -3.80144626 -5.31429705 -5.12646502
O -5.32460750 -5.87903979 3.80860022
Pu -1.27378603 -5.83615379 5.70309437
O 5.72611180 2.54571866 6.59337393
O 0.98802983 -10.40035029 0.51966283
Pu -3.05795819 7.48221640 7.14818253
O -1.98965139 1.46454151 4.60532042
O -8.36478921 5.76840159 1.20419811
Pu 4.95798057 0.89070838 -6.60221983
O 2.75539184 -5.33444875 7.41060073
O 0.55609205 6.73410048 3.13504322
Pu 3.82448939 1.12163228 6.74837498
O -3.55070548 -5.90535725 -2.76455520
O -8.77333540 -4.28188396 -0.10544595
Pu 6.76043749 -2.44053962 1.89788311
O 1.20722473 3.41816340 2.56644968
O -0.82092587 6.80568783 -2.17837862
Pu 0.39068999 8.47170955 -2.50074056
O 5.19466775 8.28028417 0.94424822
O -5.84885665 -6.46918725 1.35003568
Pu -1.92249681 6.24717558 -8.11425740
O 4.00967367 6.42744174 0.40049272
O 4.03740355 2.39672414 -9.43073723
Pu 1.72066370 -7.35213714 4.75545610
O -4.11632110 2.60244012 2.31653185
O 1.76652766 9.15488533 -1.32752128
Pu 2.37255123 -4.31440210 5.68691973
O 2.82999685 -1.00879998 -9.54060614
O 0.15218150 -5.88540114 -8.17561488
Pu -8.50141917 4.43890656 4.83824657
O 9.49123459 0.68971805 2.03298009
O 4.33020475 -3.02557275 -7.00046907
Pu -0.98990889 -6.11415315 -3.62499646
O -8.39355631 6.30833122 4.35705253
O -6.84058815 5.76169758 -3.74973157
Pu 5.03279648 5.84699776 2.23662273
O 3.90020277 4.36599434 1.49664294
O -7.85740957 3.24257605 -5.30233403
Pu 10.31627147 2.93325141 -1.89793266
O 6.23998706 4.67466620 6.00640849
O -1.77287345 5.67377191 7.73271939
Pu 3.26181963 1.46121749 -0.81428954
O -0.28697962 -1.30386929 -5.82678354
O -5.37986904 -3.48707020 4.71205230
Pu -0.95832289 0.77110423 -5.60336218
O 3.38370000 5.37683799 3.69541719
O 2.98723098 6.89280303 -4.74436034
Pu -9.52320287 1.10526216 6.50301929
O -8.86459113 2.91425117 6.45712854
O 9.59054332 2.84185085 -3.78938856
Pu -8.94094566 3.52800692 1.47154862
O 4.91967288 5.57211674 -1.54759261
O -3.39199259 3.83145564 4.94607489
Pu -8.91757550 0.12846890 0.64264399
O -9.72224272 3.96090409 3.28486718
O 1.62780942 -8.52505161 -5.64486183
Pu -8.13571598 -5.28263125 -1.83314513
O -2.49009969 -0.55316813 -0.06065946
O 1.58341322 3.34258752 -9.41130791
Pu -1.60341968 -2.71118497 6.05590678
O 4.26968001 1.49199079 1.32407623
O -3.72764402 6.05077413 5.88023891
Pu -4.43243129 7.14739384 0.47479562
O -3.01045757 0.32322271 -5.81097361
O 6.04837312 4.53558152 3.60002640
Pu -0.35696231 8.00151852 4.49444452
O 0.63345692 3.84069544 9.08514261
O 7.39677628 2.12698562 2.95210272
Pu -5.27000693 -0.99001170 5.26207872
O 0.69951076 0.42995451 -10.37227194
O 4.51631357 3.02045579 -1.25851671
Pu 6.58184903 -1.25590990 -3.77661786
O 6.88690370 -4.91222726 -1.55532972
O -2.32363519 5.98203884 -5.87953132
Pu 1.97406574 -9.10632273 1.88379067
O 6.15956714 4.76753922 0.92537247
O 10.22187285 0.89238612 -2.13448012
Pu 9.08569525 2.98406758 1.36885212
O 6.49184251 -4.46145156 2.15976962
O -1.46645850 1.43040106 7.04320271
Pu -3.43911923 -1.21799293 -1.80464373
O -0.38474715 7.31885164 -6.89220119
O -0.42761818 -1.54913584 -11.21144312
Pu 1.39834041 6.44538237 -5.95146593
O -8.74458728 -4.90472070 -3.75753606
O -0.50773913 -11.62191154 -1.99271767
Pu 2.06026057 -2.30320099 -1.14043665
O -7.59882397 0.80894868 -0.85145462
O -4.11696467 -3.75023217 8.87701583
Pu 3.65918843 -9.40525088 -2.13687585
O 6.33532460 -4.49788057 -6.88591561
O -0.67426933 -4.34639104 -2.67252039
Pu 3.07762775 8.16183615 -0.05250730
O 7.91745921 0.26448227 -2.88712016
O 4.05245944 -5.53137090 -5.87714559
Pu 2.92265872 -7.02850436 -4.68634999
O -3.64190207 3.81496455 -4.85609775
O -9.40041368 -0.48626007 -1.14424077
Pu -3.10151679 7.47086429 -2.30289305
O -0.01973263 -5.17942201 1.84061028
O 4.72659579 4.95086675 -7.23788554
Pu 4.67591950 -7.46254237 0.63018931
O 0.83113036 1.60827346 -4.72480392
O -3.56414398 3.51678886 0.03266717
Pu -3.84585061 1.25854334 -3.75083913
O 1.55392819 -4.07289822 -11.20108977
O -5.95524658 -7.35801630 -1.99303470
Pu 6.79722580 -3.67984909 5.89928357
O -4.51118303 -2.01748849 -7.33487922
O 6.13580833 -1.90255296 6.34572611
Pu 6.65985915 6.44266852 7.14955344
O -1.16421114 4.64855937 0.93495636
O -7.85596032 1.21802072 7.81457919
Pu 7.61453893 3.29819670 6.83663397
O -2.31002953 -7.97080435 -3.86761083
O -2.29334202 -2.04854175 7.91393012
Pu 5.72818030 3.87865145 -2.56817397
O -9.90723050 1.97755582 0.91688057
O -1.25040726 -3.74930455 -6.04504749
Pu -0.48909728 -3.40428946 3.01885940
O 6.51217186 -1.38031077 3.61835569
O -4.32238181 5.92995852 -1.27983631
Pu 2.50860204 -2.15328156 2.33073622
O 3.34608997 8.67339687 6.09497993
O 4.83520845 -0.01417816 -3.61257603
Pu 2.66860752 1.93469338 2.77258219
O 1.86161895 -2.80237324 -6.37495622
O 7.83471204 1.68585002 8.01060297
Pu 1.32813650 -11.49988547 -1.07041649
O -7.52788485 1.80695443 1.95688871
O -0.16369882 -8.22823897 1.18836479
Pu -6.36891664 -7.95163503 -0.11662399
O -7.10639495 -0.40859354 -6.29220892
O 2.82496494 -3.41422728 0.91110247
Pu 6.29202593 -2.53220065 -7.27133422
O -4.55227447 -8.07410499 -4.88317834
O -0.17129132 -2.26398025 -1.32691768
Pu 6.04091088 -6.80166914 -2.45147931
O 6.61295365 -6.92391855 -0.11627143
O -7.91552109 -5.69162435 2.99082793
Pu 3.14783797 4.74625311 -0.43749939
O -9.71000598 -1.39137534 -3.87277145
O -5.42216695 -3.54664099 1.82921333
Pu 0.09515103 -7.35732954 -6.77585459
O 5.36956670 -2.37671392 0.48145839
O -5.16933925 1.12484080 5.16966419
Pu -4.94162267 -3.72455174 7.04517109
O -2.28322967 -5.75948552 -0.32540332
O 1.55901112 2.32661173 -7.34215873
Pu 5.75959870 3.02263498 2.01690203
O -6.25768620 -1.97423531 6.90924103
O 5.01871926 7.55853359 3.28468781
Pu -3.14620088 1.59072163 0.35428941
O 1.22159420 4.75282128 -0.47094910
O -0.22852188 -3.01236096 0.98037464
Pu 8.08674708 0.40433369 3.70091438
O 4.39935180 2.77258383 3.68949101
O -0.43648589 5.99968128 -4.55412829
Pu -4.29197497 -5.36858172 -0.24688850
O 1.74994138 -3.65954117 3.42315248
O -6.66692895 4.22565969 -2.04602091
Pu -1.83202186 -0.12754377 8.41890073
O -6.26444056 -0.76545449 3.28243987
O 8.24030001 -0.21782280 5.72133420
Pu 1.95843931 -0.72283187 -7.21228859
O 6.72965618 0.28833988 -5.23694413
O 2.22401052 -9.07574578 3.96410417
Pu 7.91415662 1.86883139 -4.48275341
O -3.46130149 -5.80775689 1.76823742
O -0.28952602 5.26306081 -8.70507687
Pu 2.69013507 6.90401295 6.71042835
O 4.91090625 -0.01718578 7.94614643
O -0.35138030 -1.11134337 2.60890077
Pu 8.54606755 -4.15529478 -2.71619199
O -2.58158929 5.40190951 -3.00511896
O -2.37094170 0.84836305 -2.04631600
Pu -5.34999822 4.73961461 5.60351423
O -6.29232663 -5.10758807 6.67961841
O 1.59907168 6.94401633 0.77257228
Pu 5.55747604 -4.57627685 -5.02445192
O -0.16491735 -1.10435422 5.71430810
O 0.27339828 -0.35792997 8.42452368
Pu 4.08337537 6.75259634 -3.05746523
O -2.61352254 3.55694432 7.12670381
O -6.31410001 -5.12004601 -0.69536277
Pu 2.44896193 1.01469151 -9.66386841
O 1.62288599 -1.07500452 0.70627031
O -7.37488403 1.38429718 -3.10148341
Pu -0.51104973 -2.41555353 -3.91581119
O 6.71440134 8.19168727 6.16134995
O 8.78830100 4.59625852 2.57896400
Pu 7.90573971 4.71710641 4.26871207
O 10.54613328 -1.62921035 -0.71668817
O -2.20010875 1.63181825 9.30296002
Pu 1.91842346 -5.45048224 1.27946917
O 0.41277729 -6.33358632 -0.17294456
O -9.74568673 -0.77288617 6.82266097
Pu -6.77152462 2.75027744 7.32650511
O 8.37910385 5.40533262 6.06090708
O 1.56412350 1.74521414 -2.04234449
Pu 9.55788130 -0.90517084 -2.20163026
O 1.70928722 -2.13235896 -3.22668601
O -4.36378807 0.14803715 1.43619927
Pu -7.08810375 -1.22814694 -1.94073162
O -4.94463138 -0.55439536 -3.31086437
O -1.41571430 3.02462441 -6.30250694
Pu -5.56425452 -1.45993701 1.27704117
O 4.77354061 -5.71317387 -0.91052772
O 8.39253279 2.76823510 5.09041752
Pu -9.52666233 0.48016892 -2.86588557
O 9.44425123 -5.33908399 -1.15236893
O 3.19824965 -0.57614832 -1.45269924
Pu -7.03323641 6.68880641 2.70390384
O -1.69850390 8.66573814 -3.32108920
O 2.34724373 -7.66492201 -2.13696953
Pu -2.17588807 -3.91238279 8.97129496
O -3.45101424 8.47431768 4.93244163
O 4.49415828 8.02690753 -1.66771355
Pu -8.43794383 -2.94830930 -4.53515063
O 10.74959378 2.76610678 0.21165020
O -8.97116715 1.17871966 4.49144401
Pu 3.27745449 3.71353110 -8.12938279
O -0.73770931 -5.74564875 7.92889117
O -2.66117627 -6.47592566 3.84366230
Pu -8.39966401 4.10402062 -3.40943784
O 2.61700609 -7.08315968 0.12525460
O 8.48176051 -1.62159078 2.58753496
Pu 1.40342935 -2.03139431 -10.53158142
O -4.27794806 6.86027640 -3.92344184
O -8.09923949 -3.37729786 4.80114561
Pu -1.49731664 3.39025058 8.77894121
O -4.31292644 -7.78204354 -0.18944503
O -1.89136522 -1.75290883 -8.04327219
Pu -2.42386944 4.87591966 -1.09203900
O -1.12870306 8.42592695 2.75762154
O 4.12832087 3.49292061 -4.21603458
Pu -3.42849284 1.96870039 6.10176938
O -4.16982688 -3.63258941 -1.44984702
O -0.66320847 -0.29223937 -3.43134906
Pu -1.19140062 -6.79389913 2.28718436
O -1.87256097 -4.16309805 4.43390576
O -7.35185928 -0.20488248 5.51557959
Pu -0.17623463 2.14610653 5.64465203
O 0.21209720 -4.12851287 5.24270628
O 4.84367018 -7.67505214 2.60530260
Pu 3.33886640 -1.36944921 -4.07928843
O -6.80717419 3.01922281 5.32918403
O -5.37228843 -1.33413097 -0.89610553
Pu 6.83670026 0.03620380 7.09819885
O -3.80539662 5.75492305 1.94809904
O 4.40267249 -5.63340336 -3.41391224
Pu -7.02636037 1.29035670 3.92516651
O 0.86426357 1.27060641 3.86112907
O 5.87943105 -0.61621145 -7.49542496
Pu -8.22975001 -1.88383847 6.25209167
O -9.14841363 4.49476070 -1.32345129
O 8.42790866 -3.47824429 1.00187953
Pu 2.74260172 -5.53474212 -1.86663139
O 10.56298141 -2.78774885 2.47980430
O 6.64016888 -2.67766327 -5.22852730
Pu -1.41820895 8.00433909 -5.26874035
O 7.15579635 -2.54110938 -2.00474580
O -9.72770654 2.50231008 -3.34160497
Pu -3.93019164 6.94078907 3.83423513
O -1.55265803 7.13358528 5.83219108
O -0.52317254 -3.23524658 -9.36289076
Pu -5.60925920 -1.40515936 -5.26674887
O 3.42812999 -0.49602908 -5.83515069
O -3.47479332 -0.04954324 6.82060859
Pu -2.68331976 -9.11701496 0.35358619
O -3.85385416 6.09790177 -7.65585970
O -7.52330947 -3.20701016 -2.37340673
Pu -4.24771780 -7.89129433 -2.94272347
O 1.44770720 -4.34281358 -0.62771423
O -2.23873848 6.69371133 -0.08690069
Pu -5.62262700 3.69780513 1.82947849
O -0.30319260 -7.70820230 -2.72351466
O -5.93682504 6.67083869 4.54991104
Pu 7.84955471 -5.46695009 0.45133184
O 3.91581013 2.76671948 -6.23483035
O -3.28323306 9.45271185 7.08803336
Pu -0.44596780 1.67240250 -2.50267141
O -2.52941130 -3.19242049 2.41016347
O 3.20736308 -0.99369782 5.92242439
Pu 5.10070607 8.42390839 4.97543247
O -7.26717778 4.18040307 3.10914568
O -3.65977614 8.55128948 -0.72970513
Pu -2.83003094 4.06803943 2.94005433
O 1.61859295 -7.05699006 2.63827730
O -7.34348081 -1.32551953 0.58788368
Pu -6.95558916 1.57486549 -5.67188672
O 7.08654170 3.84669855 -4.20608044
O -5.40178444 -8.95879503 1.64506362
Pu -7.20936930 -4.78607423 1.28220025
O -2.39320793 1.02631690 -8.77408270
O 7.14559999 -5.49573629 -3.81222555
Pu -1.25088598 -9.69338362 -2.99738675
O 2.60139134 5.10653674 5.85759419
O -0.12055778 0.50307163 -7.66675403
Pu 0.61685974 -8.14275674 -0.88581425
O 3.52389086 -3.75113353 -1.83628215
O 6.04588939 -5.17835195 4.94843486
Pu 0.71441735 5.38705105 -2.45134241
O 8.85696033 -5.82425846 2.31316758
O -0.37841821 1.06639587 0.56529878
Pu -2.79732127 10.31447701 5.22989354
O -1.69711010 -8.07883243 -7.05747488
O -2.74060456 -2.50285482 -3.05572355
Pu 6.01054989 6.81679522 -0.46701974
O 3.35479228 0.60257404 -7.81516147
O -3.23713551 8.09302669 -6.54956996
Pu -0.42809973 -1.07394368 0.52832433
O -2.63598576 -8.48058080 2.23899313
O -0.32363241 -7.19343056 4.35904000
Pu 5.71037780 4.29433384 -5.75044763
O -0.81029497 3.57004582 -1.47091904
O -5.02728341 4.60562681 3.55797711
Pu -0.64553295 -4.53966137 -0.44450948
O 6.53307871 2.41714943 -6.24611141
O -1.95247559 6.16243858 3.46812705
Pu 4.73885219 -1.20583656 4.64873385
O -3.90194222 -2.75526038 -5.21996705
O -7.04229479 3.46329330 0.27744083
Pu -4.62658824 6.85642788 -5.87963546
O 3.52597611 3.18151825 6.88109291
O 0.93412167 6.93163773 5.80231337
Pu -6.96219824 -5.05791920 4.72300404
O 4.67603527 -8.00069579 -3.62644822
O -7.32777979 -1.24787322 -3.97230818
Pu 1.37768762 -1.51745963 7.20970091
O -5.34384977 4.77341621 -5.84474849
O 1.43727244 -5.74780767 -3.61876030
Pu -1.69086220 4.48523312 -4.71090720
O -8.00714671 -6.96961302 -0.43723809
O 2.61948377 4.90719315 -2.67863956
Pu -6.38535009 2.21306408 -1.43898241
O 7.78923326 7.01373846 -1.12974726
O -2.90246898 -4.59656931 6.77258342
Pu -4.59685391 -7.48790837 2.72467889
O -1.22096028 -9.05022611 -0.97434856
O -0.39070411 -3.32206261 7.56766703
Pu 10.08065846 -1.28161878 1.16330273
O 5.48619672 0.44137263 5.38594621
O -3.41623286 -9.44101667 -2.12126632
Pu 2.86860136 -4.56003470 -7.13610216
O -5.12606875 2.77136528 -3.12372031
O 5.32715112 -8.45934593 -1.35360279
Pu -4.40680378 -4.22621886 -3.61206663
O 1.69547184 -3.71632258 -8.61324552
O 8.40854305 -3.55510406 4.71447697
Pu 4.52881713 4.18833233 5.23123340
O 0.55287483 4.19479095 -4.28117673
O 3.20905263 -5.87449350 4.64397176
Pu -3.75789542 -4.50081687 3.60087917
O 7.10341336 2.47871697 0.57371245
O 3.32940302 -9.22281885 0.14076881
Pu -0.10766112 -2.80673115 -7.46556147
O -0.81948794 9.85784247 5.02117371
O -6.03958178 5.65003063 1.15233690
Pu 7.47207056 1.10941645 -0.87959502
O -0.23869748 -4.08732420 9.91129946
O 8.29062319 -0.60013588 -0.17143604
Pu 1.10402870 -4.96069352 8.43957040
O -3.51658549 -5.61106028 -7.81081248
O -3.61511550 -2.30719109 5.59672127
Pu -0.96524752 0.85633532 3.08188974
O -1.88665897 2.20689619 -4.07287890
O 2.30019316 -3.26704613 7.43761275
Pu 9.18146021 -4.02702977 3.03086621
O -0.92321289 4.15840115 4.10525713
O 4.86356784 6.55412612 5.67161851
Pu -3.18193839 -3.85898169 -6.93796297
O 1.86005575 4.62945353 -6.54283010
O 1.12926328 -9.76920254 -2.19375819
Pu -1.10789359 -0.32695622 -9.61147971
O -1.26911075 -6.43877295 -5.59091036
O 8.75417136 2.86247333 -0.73266066
