420
ML-kMC step 500
Pu 1.65740569 5.42777190 4.08435712
O 2.02771057 1.44372621 6.77298403
O 4.68283668 -2.85958087 -3.99270553
Pu 2.16933665 3.33340363 -4.82335948
O -5.28325633 7.80452384 2.40895222
O 9.18612368 -2.29498905 -3.58725339
Pu -7.41813752 5.53960113 -0.44566972
O 3.05614746 -11.47415205 -2.01209510
O -6.56301308 -3.11323361 -4.74490972
Pu -3.75360224 3.54761402 -7.17529220
O 1.20864352 -6.62432025 5.94653529
O 4.68815729 6.71656333 8.10674820
Pu 4.96221310 -5.53881915 3.50958803
O 2.28325994 2.87240305 0.28675263
O 5.54308753 5.75388780 -4.38889245
Pu -1.48398431 5.27819854 6.01293300
O -5.58832852 1.03344759 -4.96986713
O -4.55658704 1.23509578 -1.35579432
Pu -5.26608385 4.91917561 -3.38574802
O 7.19142774 2.39610903 -2.56396338
O 3.61650594 -0.56008031 3.07913115
Pu 1.77556845 3.83808521 7.73890557
O -4.34218347 1.58732959 -7.44965342
O -6.10324734 7.04936605 -0.90948114
Pu 0.16671658 -5.21952047 -10.18131893
O 2.11043155 7.35281637 -2.37134408
O -5.24554011 3.24385516 7.30093464
Pu 5.79484920 -3.46114665 -1.07657038
O -1.25743075 2.59338174 2.12616898
O -0.33998518 3.54679822 7.35183999
Pu -0.59123867 6.87359322 1.48060698
O 3.96466482 -5.55537922 1.80990448
O 0.72520924 4.19478359 5.57602875
Pu -3.41815761 -0.42228687 -7.80576681
O 1.48822903 -5.97645955 -6.04456792
O 0.48208871 8.47990619 -4.62289116
Pu 0.25510024 3.19018154 0.67847785
O -1.96264484 4.11670098 -8.37734833
O 4.69812802 -3.33880168 4.12531339
Pu 0.11847319 3.63322209 -8.84116440
O -6.86471874 5.23131276 7.12316483
O 0.87657100 -1.30515060 -8.98806515
Pu -3.41359884 -7.12180715 -6.12165728
O -4.19671105 -5.32233826 -5.47315413
O -5.44522062 -5.33282288 4.10457577
Pu -0.94056461 -5.81128659 5.74011006
O 6.15136466 2.36238605 6.47628589
O 0.85662048 -10.58886083 0.60222628
Pu -2.96351292 7.72518408 7.40203099
O -1.97533613 1.71646445 4.81218102
O -8.80243655 5.89314143 0.90148613
Pu 4.93464348 0.88905780 -7.04710438
O 2.73660893 -5.51228251 8.11710414
O 0.40036280 6.80747308 3.42490855
Pu 4.20206213 0.94675354 7.16835173
O -3.68303559 -5.73168562 -3.11161627
O -8.75402241 -4.25422985 0.33714729
Pu 6.90024721 -2.45056661 2.07796560
O 1.60327624 3.77629646 2.64282556
O -0.72656501 6.97829141 -2.22090617
Pu 0.46470329 8.68817970 -2.57981211
O 4.80650446 8.36310225 0.86802214
O -6.01595488 -6.56602342 1.10129270
Pu -1.72692568 6.41730750 -8.10306071
O 4.33780764 6.43643546 0.26447249
O 3.93301427 2.06111983 -9.45564913
Pu 1.96662791 -7.45032725 4.29961029
O -4.46799217 2.60423157 2.59070755
O 1.58283367 9.22455536 -1.00092738
Pu 2.48951793 -4.62819677 6.15206139
O 2.93346440 -0.98379297 -10.19951262
O 0.24622577 -6.47833477 -8.52558121
Pu -8.66611912 4.75544273 4.92567187
O 9.44385941 0.66615247 1.82530493
O 4.43506740 -2.99947877 -7.68617394
Pu -0.93211746 -6.34028391 -3.60357080
O -8.56133437 6.63427034 4.18556800
O -6.94989917 5.38244316 -4.17235628
Pu 4.97663203 5.81457185 2.22266888
O 3.95851282 4.34425799 1.40192313
O -7.96403363 3.34327300 -5.36608123
Pu 10.96845017 2.88306315 -1.26886919
O 6.47794419 4.81130607 6.16141645
O -1.92888982 6.24186726 8.16984080
Pu 3.30365830 1.42603824 -0.82892522
O -0.39942028 -1.47158260 -5.94757084
O -5.53825538 -3.24533713 5.25910402
Pu -0.88540981 0.80799543 -5.74142228
O 3.56218048 5.27089920 4.05718670
O 3.13425667 7.36247588 -4.81710790
Pu -9.57972604 1.19851403 6.68478268
O -9.06508103 3.38463193 6.65431264
O 11.14093338 3.36750708 -3.12201857
Pu -9.27800554 3.51227140 1.27058753
O 5.41660963 5.69293202 -1.76686260
O -3.26596957 4.08839483 5.39431127
Pu -9.06256136 0.17095608 0.69772665
O -9.62302501 3.83699316 3.24599945
O 1.73394863 -8.61845374 -5.63232795
Pu -8.29426326 -5.11932701 -1.49706372
O -2.39994588 -0.37572933 -0.24165815
O 1.93894855 4.71537699 -9.30367489
Pu -1.85419437 -2.71238544 6.32838485
O 4.48752238 1.55923525 1.64279940
O -3.86307902 6.36217169 6.03060170
Pu -4.59218203 7.18424670 0.52207467
O -3.02711820 0.16618635 -5.66102946
O 6.21600667 4.60481468 3.40510915
Pu -0.43033862 8.20415125 4.52581442
O 0.54577037 3.69339261 9.25510146
O 7.62480301 2.20256438 2.74364140
Pu -5.59419466 -1.02841531 5.33307595
O 0.74872627 0.58809904 -10.84693763
O 4.61572965 3.11259802 -1.14600365
Pu 6.72052015 -1.07744262 -3.67291294
O 6.78958264 -5.07974111 -1.30066466
O -2.36102728 6.32170862 -6.07432888
Pu 1.74823106 -9.25862432 1.66360176
O 6.49234145 5.37539923 0.87955767
O 10.39790440 0.97451563 -1.95989628
Pu 9.26218912 3.04843604 1.58257526
O 6.69650785 -4.51611855 2.47518927
O -1.06553260 1.36180621 7.40813965
Pu -3.43219742 -1.14609686 -2.14812620
O -0.19919684 7.56328365 -6.96119553
O -0.58698707 -1.73023654 -11.64362183
Pu 1.50511560 7.01991062 -5.96154357
O -8.67312377 -5.06205461 -3.45886445
O -0.66367153 -11.66559468 -2.49252773
Pu 2.29989581 -2.63204242 -1.32876128
O -7.78144901 0.70282504 -1.00953491
O -4.32003630 -3.90468977 9.20084507
Pu 3.57846004 -9.47070504 -2.18949414
O 6.68855903 -4.06609119 -6.56798156
O -0.65525501 -4.74940458 -2.47645846
Pu 3.07415010 8.17454689 -0.11194973
O 8.20861118 0.12692525 -2.87273046
O 3.99168096 -5.86712475 -6.43990185
Pu 2.96435511 -7.04588706 -4.95633580
O -4.17209956 4.10086475 -5.17562591
O -9.81346900 -0.65486789 -1.00127642
Pu -3.18773760 7.51036165 -2.38559437
O -0.19667112 -5.24553065 1.83453546
O 4.98712995 4.76777571 -7.66924133
Pu 4.72251181 -7.42900965 0.23943620
O 0.68867919 1.78084421 -4.49124121
O -3.19817473 3.65217110 0.25877668
Pu -3.90765123 1.40028346 -3.99527275
O 1.51482177 -4.38786333 -11.36542989
O -5.44304431 -7.15891834 -1.45567874
Pu 6.84121917 -3.65918067 5.81572119
O -4.45758116 -2.00686686 -7.30169307
O 6.27342029 -1.86100280 6.22320645
Pu 6.58031982 6.57979970 7.22236214
O -0.97786608 5.03974466 0.90108501
O -7.76179346 1.61277423 7.61562044
Pu 7.74099481 3.39429252 7.04208773
O -2.45594040 -8.16071437 -3.78084424
O -2.31960746 -2.05493028 8.34873395
Pu 5.98626841 4.06905982 -2.64265280
O -10.13179174 1.81584922 0.96683442
O -1.16504810 -3.79466377 -6.45033483
Pu -0.62765487 -2.97993417 2.99960778
O 6.73793343 -1.19101923 3.66166286
O -4.16254092 5.63823937 -1.51762226
Pu 2.55795222 -2.21505802 2.37066277
O 3.66496072 8.90667041 6.18135132
O 4.81235589 -0.06333972 -3.50070374
Pu 2.94005329 2.17624857 3.07920168
O 2.22183874 -2.84665259 -6.48337249
O 8.02399633 1.66850852 8.06900735
Pu 1.05153991 -11.75253260 -1.27558322
O -7.54258307 1.90634787 2.20304396
O -0.03814341 -8.32284920 1.11073054
Pu -6.59066766 -8.18359743 -0.05267084
O -6.99685121 -0.38674294 -6.57333550
O 2.79186653 -3.58139149 1.02022327
Pu 6.56208135 -2.27704717 -7.28642387
O -4.60858533 -7.99436518 -4.91322477
O 0.14333861 -2.25535474 -1.21391092
Pu 5.93642716 -6.76113060 -2.67438063
O 6.60874520 -7.15508398 -0.03469630
O -7.93199341 -4.53734726 3.07591273
Pu 3.20261534 4.82751945 -0.40566295
O -10.19880271 -1.98009866 -3.90898170
O -5.76528823 -3.54319870 1.33905252
Pu 0.18334391 -7.59056057 -6.86216142
O 5.66749104 -2.11626712 0.41737925
O -5.73003277 1.04565947 5.19498768
Pu -5.10867381 -3.69839821 7.17464939
O -2.21551074 -6.03609037 0.02454682
O 1.53737525 2.30541579 -8.57926542
Pu 6.01578694 3.08060560 1.96194528
O -6.48830683 -1.82924227 7.10797016
O 4.78178770 7.39663037 3.40606408
Pu -3.40633959 1.52468662 0.39321955
O 0.97929459 5.12710981 -0.74148868
O -0.07094872 -3.20526633 0.80376692
Pu 8.47093347 0.44808112 3.48850311
O 4.62671940 2.87386872 3.80919706
O -0.49100336 6.49923035 -4.59372710
Pu -4.34248485 -5.61841835 -0.32300429
O 1.34956783 -3.65734955 3.37504033
O -6.54386500 4.27324618 -1.82796813
Pu -1.77601204 -0.13863574 8.57457455
O -6.06707605 -1.15892138 3.32135322
O 8.87218483 0.07012086 5.49911505
Pu 1.99107962 -0.97604814 -7.15183927
O 6.67632995 0.45869390 -4.92467599
O 2.43842124 -9.11173114 3.50167137
Pu 7.86091959 2.08824754 -4.53735592
O -3.83604861 -5.89323132 1.92789222
O -0.26568737 5.66060698 -9.11777298
Pu 2.85846241 7.10029715 6.89553265
O 5.43840254 -0.19199077 8.19549877
O -1.18925234 -1.00103588 2.46864921
Pu 8.60774543 -4.04447364 -2.73901836
O -2.54109101 5.33625457 -3.07936875
O -2.44668876 1.08789679 -2.18003499
Pu -5.25669963 4.83405602 5.78250417
O -6.09472134 -5.34689863 6.66871081
O 1.58267040 7.31005638 0.96192215
Pu 5.71535888 -4.25123739 -4.90788811
O -0.26922710 -1.33663752 5.91866672
O 0.60811777 -0.48486507 8.84639862
Pu 4.28228642 6.81644767 -3.18545012
O -2.83207752 3.26000672 7.58035877
O -6.42379699 -5.17306713 -0.75783092
Pu 2.29404320 0.92756834 -9.74702938
O 1.28203587 -1.13546782 1.39577295
O -7.34660078 0.95567255 -3.17959828
Pu -0.48954198 -2.62029755 -3.88465857
O 6.97031503 7.97918936 5.78535215
O 9.07801529 4.66693660 2.66361342
Pu 7.96239607 4.69976625 4.36951602
O 10.77539739 -1.71439282 -0.79339159
O -2.19667345 1.33317757 9.92981041
Pu 1.91842346 -5.45048224 1.27946917
O 0.31278579 -6.33508199 -0.44699869
O -9.83082649 -0.74036645 7.18456036
Pu -7.12876298 3.44263869 7.83684643
O 8.31159382 5.52498774 6.52793252
O 1.60876034 1.65342737 -1.97431349
Pu 10.12196997 -0.91114759 -2.50657853
O 1.59291723 -2.30803039 -3.57125396
O -4.73640885 0.42403420 1.38643005
Pu -7.08810375 -1.22814694 -1.94073162
O -4.85617668 -1.30153491 -3.67104430
O -1.69250054 3.17418762 -6.40656218
Pu -5.69061104 -1.48765962 1.25997671
O 4.55457586 -5.95997337 -1.30493045
O 8.45037201 2.72697839 5.06675122
Pu -9.52271882 0.31594843 -2.89563800
O 9.17439782 -5.35514383 -1.26968386
O 3.42833891 -0.78191214 -1.26791480
Pu -7.01617479 6.89803374 2.90880616
O -1.85616721 8.90782318 -3.32762755
O 2.23778544 -7.98300715 -2.03874932
Pu -2.31300479 -4.00309232 9.29356105
O -3.67641643 8.94699288 4.85685206
O 4.61500901 8.22140341 -1.50165945
Pu -8.53591545 -3.21726992 -4.12178102
O 11.21574204 2.95566741 0.77549739
O -9.36216940 1.24746706 4.62131738
Pu 3.40015449 3.79504286 -8.48789211
O -0.90301458 -5.71374009 7.83987474
O -3.47522669 -6.99122912 3.90887356
Pu -8.49646317 4.28259707 -3.63126963
O 2.69940296 -7.00363890 0.23988516
O 8.77468290 -1.51917486 2.72527046
Pu 1.41099155 -2.19091835 -11.03265930
O -4.45157844 6.94681885 -4.02740687
O -8.49632933 -3.69185459 5.52854603
Pu -1.44354203 3.02569659 8.97534662
O -4.17145071 -8.13131281 0.24764490
O -1.83125107 -1.65800642 -8.31791486
Pu -2.19362939 4.97759801 -0.99804630
O -1.58785788 8.84683175 2.94703131
O 4.27024405 3.84241491 -4.21998509
Pu -3.68958992 1.98298251 6.27096690
O -4.18625378 -3.75742865 -1.58854572
O -0.80151973 -0.68121139 -3.53828090
Pu -1.26468418 -6.86325762 2.18297032
O -1.71899820 -4.19162342 5.01043817
O -7.84736077 -0.58405776 5.10626832
Pu -0.21399293 2.13536050 5.83921361
O 0.50660049 -4.32948485 5.64900547
O 4.96888110 -7.28768071 2.31404779
Pu 3.38341215 -1.31404281 -4.01387208
O -7.13792932 3.10130357 5.32620000
O -5.31068046 -1.20591691 -0.97679389
Pu 7.24117497 0.12102455 6.93072151
O -4.22576099 5.46714796 1.65600979
O 4.74082898 -5.69269927 -3.93753327
Pu -7.43570973 1.18515719 4.15434830
O 1.00839254 1.28801027 3.93580232
O 6.23844601 -0.45731264 -7.93506473
Pu -8.56519860 -1.93634709 6.30494172
O -8.92515998 4.75380120 -1.63195681
O 8.10463194 -3.49939208 0.73910725
Pu 2.56887366 -6.02746101 -1.82291088
O 10.81840670 -3.12842503 2.22333306
O 6.84316362 -2.13294472 -5.32659374
Pu -1.33754625 8.32988166 -5.31254979
O 7.07307295 -2.67786189 -2.54772140
O -9.32129775 2.30688188 -3.19791029
Pu -4.02166001 7.15268016 4.02136176
O -1.70029592 7.24780260 6.03594757
O -0.47629271 -3.28866388 -9.76517554
Pu -5.67306056 -1.41472166 -5.53992372
O 3.35003653 -0.47090045 -5.72977545
O -3.46878609 0.27861814 7.29987719
Pu -2.96718452 -9.74406419 0.28858784
O -3.66718205 6.03886912 -7.82329773
O -7.62081099 -3.30006084 -2.13351661
Pu -4.33146166 -7.90687931 -2.90294924
O 1.61457410 -4.54144773 -0.94192885
O -2.20484138 6.94702855 -0.09494388
Pu -6.12679439 3.66309654 2.15049517
O -0.28866539 -8.06436907 -2.79266650
O -5.89098595 6.76794273 4.67396257
Pu 7.83851237 -5.70524402 0.38279761
O 3.81478223 2.84923616 -6.46169506
O -3.14300478 9.75024878 6.97691321
Pu -0.49014544 1.72356612 -2.46744594
O -2.58339517 -3.60867955 2.79400344
O 3.22250747 -1.21441560 6.06752207
Pu 5.17379734 8.65668330 4.84908697
O -7.21147603 4.70807362 3.50178335
O -3.89842621 8.52487731 -0.74362761
Pu -2.83003094 4.06803943 2.94005433
O 1.39129413 -7.12338118 2.50152657
O -7.51771156 -1.12688559 0.61568505
Pu -7.29356047 1.45305434 -5.88218984
O 7.11355218 3.89123309 -4.37933523
O -5.80464065 -9.19427381 1.67883733
Pu -7.21008652 -4.82624828 1.30357698
O -2.20230491 0.51983692 -9.06080657
O 7.11313024 -5.31458555 -3.74992549
Pu -1.17093980 -9.82028550 -3.26807690
O 2.68073916 5.11148078 6.53546880
O 0.45753837 0.36543597 -7.22237431
Pu 0.42706082 -8.34788308 -0.90483859
O 3.97664168 -3.50193695 -1.77504037
O 6.15142151 -5.30069744 5.09069454
Pu 0.82207022 5.75453543 -2.74130390
O 9.09080846 -5.68740205 1.99360782
O -0.10901818 1.18315593 0.68110106
Pu -2.70466193 10.63052929 4.98773412
O -1.75258201 -8.44587071 -6.92351123
O -2.41091417 -2.77649980 -3.10450410
Pu 6.31693950 7.19889054 -0.50363562
O 3.21387267 0.29597634 -7.92061356
O -3.25166386 8.62686546 -6.44098563
Pu -0.52058770 -1.05684141 0.24893776
O -2.42941452 -8.72223794 2.09715679
O -0.57873370 -6.87070212 4.12645233
Pu 5.60028431 4.28665289 -5.87778711
O -0.78339135 3.35984887 -1.23750686
O -4.94563483 4.48010898 3.84259665
Pu -0.79293973 -4.75083165 -0.39685842
O 6.69716293 2.26414009 -6.30726346
O -2.29648191 6.39423406 3.43697054
Pu 4.81575952 -1.29019432 4.49846900
O -4.12438281 -2.93734091 -5.13891869
O -7.27351779 3.37105457 0.31736985
Pu -4.62277229 6.68352050 -6.08064593
O 3.58783513 2.96230666 7.04308274
O 1.24199185 7.04583771 5.80026873
Pu -7.15258876 -4.96325008 4.94014181
O 4.31588703 -8.21303895 -3.70686430
O -8.12804616 -1.10234777 -3.71880891
Pu 1.28608626 -1.49995867 7.35473349
O -5.54091802 5.11846147 -6.91181969
O 1.61729910 -6.24841615 -3.57000128
Pu -1.84646448 4.55027447 -4.86871262
O -8.25673798 -7.08058628 -0.76851202
O 2.86689439 5.05355340 -2.41822973
Pu -6.24776988 2.30806944 -1.31792282
O 7.87810138 7.72151435 -1.49108867
O -3.07948239 -4.09584948 7.18564906
Pu -4.59881696 -7.69526171 2.49602827
O -1.42417920 -9.26327919 -0.96487757
O -0.59054182 -3.42265607 7.94809132
Pu 9.98033572 -1.36042167 1.05660706
O 5.46932090 0.38699985 5.50787308
O -3.86515658 -9.87089653 -1.73925325
Pu 2.92343545 -4.42078093 -7.39848061
O -5.01612606 2.80653293 -3.07726907
O 5.23337699 -8.31362790 -1.51997200
Pu -4.74503125 -4.09552233 -3.61271027
O 1.41083424 -4.00826224 -8.77281310
O 8.27890629 -3.40269986 4.48004724
Pu 4.69155977 4.18508484 5.41877357
O 0.47346003 4.55505477 -4.39644081
O 3.39806089 -5.85695541 4.81165691
Pu -3.60431162 -4.97900414 3.76224655
O 7.16045965 2.67460298 0.29289232
O 3.10715629 -9.34920600 0.17956792
Pu -0.07716796 -2.91299401 -7.74191542
O -0.81009193 9.85487217 5.49098720
O -6.62862434 5.54240639 1.41599079
Pu 7.66471198 1.11018630 -0.84943200
O -0.57986325 -4.39181557 10.07046172
O 8.69155372 -0.67172938 -0.28307339
Pu 0.86981527 -4.84336524 8.75483201
O -3.11697388 -5.56253099 -7.73548672
O -3.60506556 -1.86610707 5.51536437
Pu -0.91603314 0.96259602 3.22949153
O -1.96868065 2.52234838 -4.14729998
O 1.91575765 -3.35257437 7.70897445
Pu 9.39332764 -4.09401832 3.05204199
O -1.03241423 4.33079963 4.31325670
O 4.75808229 6.50052939 5.78736714
Pu -3.29828168 -3.87261203 -6.64277811
O 1.82929613 5.06462636 -6.40009905
O 1.05915191 -9.92363090 -2.15184853
Pu -1.02925603 -0.69974508 -10.06116805
O -1.33355875 -6.58749952 -5.58630698
O 9.17721803 2.36734135 -0.40337572
