420
ML-kMC step 5000
Pu 1.45911086 5.21115762 3.97396863
O 1.75735020 1.49098516 6.56394258
O 5.17869883 -2.81249211 -3.87581604
Pu 2.29945452 3.20755102 -4.81379497
O -5.25713465 7.86429934 2.41041365
O 9.31938186 -2.52639204 -3.56363164
Pu -7.48321014 5.68784044 -0.61014811
O 2.77682039 -11.19915891 -1.89011557
O -6.28125836 -3.31594413 -4.69025861
Pu -3.68744176 3.48462519 -7.09490591
O 1.16419932 -6.18905363 6.17890783
O 4.53933622 6.70666267 8.32200348
Pu 4.99820803 -5.64020143 3.40730672
O 2.28958378 2.72745730 0.56411375
O 5.51314945 5.78249960 -4.17011328
Pu -1.64501870 4.96055608 5.89994456
O -5.59027458 0.84003169 -5.12047216
O -4.44697781 1.22554294 -1.35945201
Pu -5.20892647 4.87646880 -3.38004068
O 6.81178748 2.32391343 -2.53499521
O 3.40247682 -0.56063543 3.18913357
Pu 1.71861168 3.87058126 7.54219295
O -4.72696524 1.60443343 -7.42258628
O -6.27764450 7.20455499 -0.67428111
Pu 0.20973909 -5.12628601 -10.16027092
O 2.09605848 7.22532632 -2.06215628
O -4.97284316 3.21187241 7.16991359
Pu 5.51381295 -3.58910662 -1.14986592
O -1.75007239 2.49269517 1.85269777
O -0.29458820 3.70404286 7.05328322
Pu -0.80105394 6.70168877 1.55302028
O 3.94210566 -5.48581980 1.75160121
O 1.08427271 3.90629645 5.38055791
Pu -3.59765709 -0.25910881 -7.73635271
O 1.63427998 -6.08393143 -6.40627071
O 0.53338843 8.39621446 -4.63776093
Pu 0.28341184 3.21920802 0.70359689
O -2.14097799 4.18549140 -8.29180536
O 4.45710606 -3.30258366 3.96845497
Pu -0.01876775 3.56923923 -8.25825149
O -7.09644758 4.71272569 6.82295499
O 0.79632708 -1.29262112 -8.87864670
Pu -3.34879637 -7.24459269 -6.22139723
O -3.86399653 -5.40454987 -5.30863813
O -5.25005991 -6.00561917 3.71554365
Pu -1.29865338 -5.81904789 5.89885687
O 5.65130507 2.51930027 6.52482567
O 0.86173387 -10.26556788 0.51264519
Pu -3.04469122 7.48989414 7.29531388
O -2.00462406 1.58373958 4.75018350
O -8.42271299 5.57870622 1.21225000
Pu 4.92101000 0.91783048 -6.70095579
O 2.85328978 -5.48558288 7.87365082
O 0.56178226 6.84624818 3.26454253
Pu 3.84489845 1.11650721 6.79656919
O -3.54200177 -5.92673911 -2.73657679
O -8.74954978 -4.17233704 0.28700885
Pu 6.70819276 -2.45182511 1.90096897
O 1.16502207 3.47984468 2.64148417
O -0.83228846 6.89481916 -2.20665866
Pu 0.41119515 8.54610501 -2.56178826
O 5.09712036 8.44919116 0.75311097
O -5.60221267 -6.49512629 1.21426387
Pu -1.84030751 6.26531021 -8.10665315
O 4.14035501 6.44902264 0.42459299
O 4.06717584 2.19975992 -9.40491303
Pu 1.84141379 -7.35592459 4.51787456
O -4.11632110 2.60244012 2.31653185
O 1.61661679 9.38828321 -1.22020907
Pu 2.68425515 -4.54031209 5.92824217
O 2.88025784 -1.11251225 -9.66869350
O 0.26295781 -6.03406163 -8.41407291
Pu -8.62758286 4.52044018 4.92587811
O 9.41104083 0.91868737 2.01162541
O 4.39134317 -3.12281542 -7.08980066
Pu -0.96842092 -6.24143172 -3.62531877
O -8.44233765 6.38567562 4.22876489
O -7.10635329 5.51175291 -3.82611646
Pu 4.97663203 5.81457185 2.22266888
O 3.90191233 4.36519817 1.50004037
O -8.26820885 3.01823470 -5.09615160
Pu 10.64982076 2.93099239 -1.55336885
O 6.41861577 4.71485902 6.04951190
O -1.98721392 5.68349858 8.11335411
Pu 3.26181963 1.46121749 -0.81428954
O -0.20803587 -1.45839571 -5.89551927
O -5.36342391 -3.53236365 4.77696629
Pu -0.93833243 0.85339689 -5.62071785
O 3.42615745 5.34761579 3.74953367
O 2.92107529 7.03607892 -4.63941734
Pu -9.75464294 1.07439864 6.47751921
O -8.79903903 3.13277962 6.60993893
O 9.73210711 2.82542846 -3.55060637
Pu -8.96813990 3.56032761 1.32308503
O 5.02673001 5.66437890 -1.66491160
O -3.21541287 3.93880912 5.03821691
Pu -9.16418861 0.09303737 0.66090274
O -9.61537464 3.78015279 3.14843550
O 1.65855347 -8.38924554 -5.66295942
Pu -8.36405398 -5.19659613 -1.56371838
O -2.36603409 -0.46183572 -0.05531499
O 1.71610622 4.14274376 -8.95542722
Pu -1.69248210 -2.66015977 6.10140750
O 4.43311197 1.58086813 1.33197770
O -3.82016741 6.16727070 6.05330045
Pu -4.52639524 7.07057959 0.51943273
O -3.01946855 0.32366876 -5.81220052
O 6.18760390 4.59997885 3.54286462
Pu -0.33126858 8.07804734 4.42325032
O 0.63169642 3.82098786 9.14558646
O 7.39882657 2.02642978 2.86028793
Pu -5.27000693 -0.99001170 5.26207872
O 0.74395527 0.30522524 -10.50439707
O 4.51395089 3.02611632 -1.26851077
Pu 6.59511196 -1.24009479 -3.78106704
O 6.89291537 -4.90418153 -1.49030631
O -2.37032597 6.02507764 -5.95387051
Pu 1.95267703 -8.92070428 1.69425150
O 6.34744575 5.05349954 0.95761256
O 10.56714202 1.01378628 -2.29877047
Pu 9.13439971 2.98800985 1.58269912
O 6.64159266 -4.53131968 2.34916347
O -1.07059296 1.47272792 7.32380146
Pu -3.43911923 -1.21799293 -1.80464373
O -0.31778828 7.40426537 -7.00726648
O -0.60188319 -1.54100537 -11.33802025
Pu 1.38553624 6.60989435 -5.92646990
O -8.84083263 -4.99610141 -3.59677974
O -0.88270870 -11.54041213 -1.97381014
Pu 2.07705888 -2.42918396 -1.09383638
O -7.76536179 0.73678386 -0.95503718
O -4.17370619 -3.78090073 8.79634705
Pu 3.59717678 -9.39518108 -2.11767667
O 6.43405274 -4.31272467 -6.93767212
O -0.66192038 -4.46918107 -2.66991982
Pu 3.07049716 8.25311829 -0.03270924
O 7.99924688 0.23069654 -2.89402934
O 4.02488866 -5.61053175 -5.96738262
Pu 2.87677174 -7.02074072 -4.87349786
O -3.84264831 4.03046636 -4.97123901
O -9.72133537 -0.49959268 -1.20036408
Pu -3.10588500 7.65000891 -2.29060857
O -0.13251804 -5.11413942 1.90399564
O 4.84227704 4.80922695 -7.36621069
Pu 4.73494737 -7.40948879 0.52941817
O 0.81685287 1.68590028 -4.55413248
O -3.56414398 3.51678886 0.03266717
Pu -3.92191377 1.29700447 -3.96579630
O 1.47151368 -4.19352759 -11.31299978
O -5.95000119 -7.35791746 -1.77642127
Pu 6.97849788 -3.71276212 5.80493358
O -4.53057158 -2.01558459 -7.30438239
O 6.37571093 -1.92503684 6.29628184
Pu 6.39126897 6.46910703 7.24085160
O -1.13048171 4.78839114 0.98256279
O -8.09176773 1.16189350 7.85139544
Pu 7.62561041 3.19201373 6.88639291
O -2.44867506 -8.04259654 -3.97982501
O -2.28968433 -1.98920429 8.00114552
Pu 5.77589520 3.92184129 -2.65415884
O -9.95411673 1.86834026 1.03468578
O -1.18454900 -3.79079329 -6.18639191
Pu -0.54393297 -3.26947233 3.01331253
O 6.56792807 -1.35751874 3.56246870
O -4.24222830 5.79681480 -1.40622029
Pu 2.68789360 -2.23172629 2.38543556
O 3.47812624 8.78309898 6.06419323
O 4.75755680 -0.17431726 -3.50953905
Pu 2.81415469 2.05687192 2.91412543
O 1.83709769 -2.81031755 -6.38609705
O 7.53136608 1.69217455 8.18285167
Pu 1.03444640 -11.38544689 -1.07276998
O -7.56585345 1.90466157 2.06374421
O 0.06997630 -8.31782652 1.19848510
Pu -6.61754531 -8.08580127 -0.03865908
O -6.98505084 -0.48885809 -6.45133863
O 2.83985126 -3.56184617 1.01162402
Pu 6.39045375 -2.36434583 -7.20572130
O -4.65221962 -8.24662807 -4.90638172
O -0.06495139 -2.19023400 -1.20348924
Pu 5.90557048 -6.86591003 -2.52056326
O 6.58722529 -6.95377454 -0.21771076
O -7.93503455 -5.47108878 3.12122571
Pu 3.20261534 4.82751945 -0.40566295
O -9.55748387 -1.62463759 -3.55546426
O -5.60035576 -3.72172254 1.47688183
Pu 0.11559701 -7.48134182 -6.86958856
O 5.33859534 -2.35358739 0.41047973
O -5.44879111 1.07970835 5.27132014
Pu -4.95657923 -3.66872806 6.99851917
O -2.26443060 -5.97703298 -0.25826597
O 1.46017543 2.07089899 -8.35326234
Pu 5.79955118 2.97403409 1.94451671
O -6.34875064 -2.11637453 6.87879218
O 4.84565109 7.37496360 3.35680826
Pu -3.14620088 1.59072163 0.35428941
O 1.10428675 4.66997172 -0.72213861
O -0.29849169 -2.99389010 0.88319310
Pu 8.10060408 0.37930349 3.63930019
O 4.52383794 2.80852469 3.73224054
O -0.38694008 6.24029864 -4.64562660
Pu -4.27057812 -5.51308982 -0.30072686
O 1.49706642 -3.61190416 3.44709187
O -6.63933303 4.29401880 -2.01772179
Pu -1.66630900 -0.17094948 8.38183481
O -6.30912271 -0.80077374 3.47777603
O 8.43742274 0.13991985 5.67766327
Pu 1.95609915 -0.75430687 -7.10414032
O 6.94141652 0.14649037 -5.09664547
O 2.38180577 -9.13588937 3.64755785
Pu 8.08579558 1.98976809 -4.43133523
O -3.48742140 -5.84996218 1.91476329
O -0.36998947 5.39773934 -8.94727757
Pu 2.83237230 7.12093353 6.92504735
O 4.93043313 -0.07277707 7.87423574
O -0.67556723 -1.11721642 2.70189918
Pu 8.55631951 -4.23466222 -2.74289014
O -2.49478132 5.41962251 -2.99600484
O -2.37120911 0.83464025 -2.21854288
Pu -5.25515305 4.77730704 5.61398517
O -6.04390501 -5.35243779 6.52408445
O 1.70611933 6.99165470 0.85417085
Pu 5.49519950 -4.53165488 -5.07324543
O -0.23099702 -1.13955271 5.88041425
O 0.35616932 -0.37430305 8.52026131
Pu 4.19546841 6.96997229 -3.21410021
O -2.65725409 3.49661930 7.14812143
O -6.38851253 -5.16376077 -0.68631842
Pu 2.44129945 0.95017425 -9.77406699
O 1.54768991 -1.05002949 1.02360731
O -7.49713824 1.35189927 -3.18367772
Pu -0.53856040 -2.60108373 -3.87195207
O 6.58634011 8.03186092 6.12614420
O 9.01545972 4.71487661 2.64624102
Pu 7.96669791 4.82218730 4.39421472
O 10.61754066 -1.66927435 -0.80476675
O -2.22425663 1.57424494 9.33116718
Pu 1.91842346 -5.45048224 1.27946917
O 0.38068672 -6.40585697 -0.29550917
O -9.83672131 -0.88648382 7.02100712
Pu -6.87892067 2.78447312 7.43489689
O 8.34684248 5.23092182 6.49771263
O 1.56412350 1.74521414 -2.04234449
Pu 9.67410867 -0.89362412 -2.31819373
O 1.59049876 -2.17606821 -3.35782861
O -4.59506044 0.13072134 1.39095173
Pu -7.08810375 -1.22814694 -1.94073162
O -4.88069754 -0.92195315 -3.39081158
O -1.58500027 3.05353948 -6.38198695
Pu -5.75993699 -1.60166689 1.32363327
O 4.62157009 -5.66959931 -1.01098697
O 8.47219057 3.02144806 5.07284841
Pu -9.41599972 0.34301740 -3.01377221
O 9.20368678 -5.34092704 -1.00844642
O 3.15922361 -0.57534052 -1.39614941
Pu -7.03559912 6.62485687 2.77671885
O -1.64156341 8.89757255 -3.49778992
O 2.43316743 -7.66863198 -2.12950090
Pu -2.10641917 -3.99420834 8.99908953
O -3.46722419 8.58010728 4.98591133
O 4.64550015 8.09886500 -1.70394009
Pu -8.27971416 -3.09060119 -4.29614441
O 11.04187493 3.04342078 0.42667046
O -9.24451783 1.28495543 4.60641627
Pu 3.41783795 3.65649576 -8.14471293
O -1.07105068 -5.62611312 8.04908017
O -2.86040505 -6.74785022 4.03796438
Pu -8.58165439 4.03285574 -3.36040109
O 2.70785647 -6.89783865 0.15992265
O 8.37228508 -1.58979406 2.55504691
Pu 1.44842897 -2.21756949 -10.56711547
O -4.30217405 6.89384734 -3.92827613
O -8.16759929 -3.44348312 5.08401342
Pu -1.48362156 3.35210071 8.91101978
O -4.31629448 -8.00774882 -0.03679142
O -2.03437110 -1.60350777 -8.07515385
Pu -2.40157519 4.87605243 -1.01657427
O -1.41966679 8.51528260 2.67502953
O 4.30718747 3.66968380 -4.28394390
Pu -3.68868861 1.87752481 6.23220769
O -4.16982688 -3.63258941 -1.44984702
O -0.85564450 -0.45620205 -3.47472198
Pu -1.21287629 -6.77430068 2.17197859
O -1.68730303 -4.18428931 4.57211382
O -7.54379805 -0.27665721 5.39496731
Pu -0.17353190 2.13312250 5.64031056
O 0.53968578 -3.97672457 5.69331615
O 4.97886972 -7.57172950 2.64060403
Pu 3.30217113 -1.36564550 -4.09653844
O -6.82296602 3.07125442 5.25206156
O -5.33299233 -1.32119780 -0.85615264
Pu 6.97766977 -0.10428816 7.05200412
O -3.94084689 5.72251925 2.08474113
O 4.35919571 -5.72575597 -3.59013400
Pu -7.19253932 1.21589414 4.03948929
O 0.94030883 1.36883423 3.86275574
O 6.04628833 -0.43961916 -7.70453594
Pu -8.31886801 -1.96795689 6.32202975
O -9.05206855 4.68454098 -1.32803765
O 8.21967645 -3.50676984 0.97830172
Pu 2.69144275 -5.61933127 -1.89764021
O 10.74318723 -2.77535017 2.18343395
O 6.74586484 -2.70798853 -5.25886648
Pu -1.43938022 8.14895655 -5.33823690
O 7.20928808 -2.54917325 -2.11229455
O -9.80270932 2.35145109 -3.10958020
Pu -3.81483311 6.79296984 3.88385748
O -1.67450731 7.03666278 5.82148818
O -0.60077660 -3.30377905 -9.56024390
Pu -5.61642084 -1.40764090 -5.30074646
O 3.43938424 -0.43047921 -5.81576576
O -3.50210415 -0.04607008 6.80954117
Pu -2.80807185 -9.33306391 0.29385669
O -3.96515500 5.81781012 -7.76633051
O -7.41061940 -3.24408669 -2.16580510
Pu -4.25314099 -7.90323106 -2.90573422
O 1.43162131 -4.39454199 -0.75673166
O -2.24088340 6.69111770 -0.02337066
Pu -5.88029467 3.59388043 2.04041311
O -0.23260994 -7.87071914 -2.82262308
O -5.79472847 6.51922623 4.57606862
Pu 7.90569224 -5.56024084 0.43042461
O 3.76407559 2.67038480 -6.28105137
O -3.32548040 9.57468075 7.16905112
Pu -0.44596780 1.67240250 -2.50267141
O -2.54646614 -3.30694500 2.62685253
O 3.24574769 -0.99879477 5.81873396
Pu 4.98339424 8.47253756 4.91943849
O -7.15915665 4.44462771 3.36763340
O -3.68209416 8.57332895 -0.70299580
Pu -2.83003094 4.06803943 2.94005433
O 1.57683992 -7.04175092 2.50328720
O -7.55361333 -1.26254236 0.41437058
Pu -7.17053328 1.61739310 -5.89675738
O 7.34445482 3.89817344 -4.41878636
O -5.69198682 -9.05618739 1.61728459
Pu -7.21089882 -4.83205388 1.30681190
O -2.28458793 0.78889023 -8.69201918
O 6.85383321 -5.31321539 -3.87155328
Pu -1.31330025 -9.72652200 -3.05768819
O 2.70874376 5.17062907 6.12146584
O 0.18219849 0.37518069 -7.32468584
Pu 0.46730586 -8.25158638 -0.92230623
O 3.51921133 -3.58988980 -1.81903226
O 6.04588939 -5.17835195 4.94843486
Pu 0.73620339 5.35987853 -2.61171522
O 8.73685047 -5.80255068 2.29161331
O -0.32467516 1.05335309 0.49689820
Pu -2.87491640 10.38807721 5.27656375
O -1.79172146 -8.19147258 -7.22245755
O -2.57881045 -2.64357280 -3.07512614
Pu 6.10716207 7.00822057 -0.49361049
O 3.14141433 0.62767637 -7.88794352
O -3.11222803 8.26216154 -6.68933990
Pu -0.46118892 -0.97277148 0.43482061
O -2.67163219 -8.37260665 1.96726048
O -0.34824843 -6.97671057 4.25351242
Pu 5.79083186 4.19425688 -5.75318076
O -0.76246190 3.41138411 -1.42252842
O -4.81429286 4.51581766 3.60203538
Pu -0.74106508 -4.48330262 -0.48434588
O 6.30542072 2.27816219 -5.95829137
O -1.99386002 6.25684292 3.22935943
Pu 4.81575952 -1.29019432 4.49846900
O -3.88665361 -2.85387876 -5.22391795
O -7.05429409 3.44153811 0.19187083
Pu -4.63387384 6.73806381 -6.07024941
O 3.48727186 3.22485868 7.00524086
O 0.96818709 7.01413384 5.76357402
Pu -7.06102891 -5.03660865 4.84221759
O 4.52643893 -8.10170033 -3.60402494
O -7.44918743 -0.94938107 -3.95298764
Pu 1.37085512 -1.56853359 7.21376507
O -5.43257675 4.79001007 -6.24056862
O 1.50737693 -5.89378687 -3.61176819
Pu -1.70781126 4.49223611 -4.72727174
O -8.32988604 -6.98016865 -0.35634695
O 2.68303499 5.04860449 -2.60466522
Pu -6.38535009 2.21306408 -1.43898241
O 7.78820954 7.54332670 -1.20583589
O -2.88045893 -4.55128925 6.64377585
Pu -4.61323366 -7.68557317 2.58014108
O -1.29010889 -9.16516105 -0.99796065
O -0.53746369 -3.42908332 7.63824855
Pu 10.08239628 -1.24416244 1.15226552
O 5.47851138 0.32377501 5.34640196
O -3.37853630 -9.58594233 -1.92735726
Pu 2.80157167 -4.45815382 -7.16827982
O -5.07507983 2.88413511 -3.07561504
O 5.20745901 -8.39628409 -1.34767212
Pu -4.46517558 -4.25889306 -3.62700536
O 1.54387352 -3.84099138 -8.65348647
O 8.55660511 -3.45977458 4.77287514
Pu 4.52575832 4.21744168 5.31314327
O 0.55182202 4.27058028 -4.37888798
O 3.34323231 -5.92761576 4.64768654
Pu -3.62056250 -4.66657413 3.64716471
O 7.08049192 2.47236066 0.56760310
O 3.36252588 -9.24219754 0.11826803
Pu -0.06045577 -2.78549804 -7.70230326
O -0.90427327 9.96618906 5.14800355
O -6.13953185 5.60778769 1.15557737
Pu 7.47084104 1.13752742 -0.85899390
O -0.24740636 -4.10319493 9.94908766
O 8.41029747 -0.65101884 -0.38177418
Pu 1.08628213 -4.92805321 8.54254900
O -3.37618686 -5.67182099 -7.83334335
O -3.74053007 -2.19655637 5.70249280
Pu -0.96524752 0.85633532 3.08188974
O -1.88753087 2.46100465 -4.12527746
O 2.30019316 -3.26704613 7.43761275
Pu 9.33717907 -4.06764868 2.92459712
O -1.04886492 4.21783444 4.10115834
O 4.86696062 6.25618468 5.78171057
Pu -3.18193839 -3.85898169 -6.93796297
O 1.73125969 4.56726436 -6.45507474
O 1.00274003 -9.76087910 -2.18639991
Pu -1.06202487 -0.36828437 -9.81130072
O -1.27486477 -6.58850347 -5.56260755
O 8.90746514 2.37951265 -0.58690362
