420
ML-kMC step 5500
Pu 1.45911086 5.21115762 3.97396863
O 1.74959465 1.49919649 6.55363815
O 4.90725807 -2.76013251 -3.72266466
Pu 2.29945452 3.20755102 -4.81379497
O -5.19313527 7.72269791 2.43202170
O 9.08508028 -2.39069591 -3.52151102
Pu -7.46935204 5.62421177 -0.58271730
O 2.82702812 -11.12546423 -1.85900795
O -6.28125836 -3.31594413 -4.69025861
Pu -3.84270851 3.47373581 -7.08791155
O 1.10178267 -6.04457667 6.12458863
O 4.37788457 6.61660762 8.18664542
Pu 4.99820803 -5.64020143 3.40730672
O 2.28958378 2.72745730 0.56411375
O 5.47423830 5.63620156 -4.18274943
Pu -1.64501870 4.96055608 5.89994456
O -5.37278556 0.80279570 -5.13619600
O -4.44697781 1.22554294 -1.35945201
Pu -5.20892647 4.87646880 -3.38004068
O 6.77142748 2.25634401 -2.42047285
O 3.40247682 -0.56063543 3.18913357
Pu 1.79113777 3.91473265 7.26983017
O -4.72696524 1.60443343 -7.42258628
O -6.27764450 7.20455499 -0.67428111
Pu 0.20893798 -5.11984090 -10.15882362
O 1.95380775 7.05300842 -2.10347139
O -4.96153461 3.23372334 7.20584143
Pu 5.51150335 -3.57194011 -1.15567821
O -1.65481804 2.43313260 1.88117891
O -0.29458820 3.70404286 7.05328322
Pu -0.80105394 6.70168877 1.55302028
O 4.00449194 -5.55886415 1.70804384
O 1.08427271 3.90629645 5.38055791
Pu -3.59765709 -0.25910881 -7.73635271
O 1.71988774 -6.18856567 -6.47442630
O 0.65217863 8.60061735 -4.69429179
Pu 0.28213164 3.22089296 0.71146755
O -2.09625912 4.12435682 -8.11954961
O 4.45710606 -3.30258366 3.96845497
Pu -0.08016501 3.34007372 -8.22500766
O -6.97706725 4.76993157 6.77869615
O 0.80048430 -1.25578904 -8.75859307
Pu -3.47626475 -7.20218251 -6.17114566
O -3.86399653 -5.40454987 -5.30863813
O -5.39889493 -5.95103465 3.82454199
Pu -1.29865338 -5.81904789 5.89885687
O 5.65130507 2.51930027 6.52482567
O 0.83953398 -10.29145551 0.74760360
Pu -3.03194189 7.45857701 7.26467685
O -2.00462406 1.58373958 4.75018350
O -8.35157618 5.56605537 1.23512813
Pu 4.88070114 0.91093797 -6.65523861
O 2.87107729 -5.49207295 7.88803190
O 0.55136821 6.84143465 3.16484578
Pu 3.84489845 1.11650721 6.79656919
O -3.55070548 -5.90535725 -2.76455520
O -8.77059866 -4.15492605 0.14102100
Pu 6.70845454 -2.45438077 1.90095291
O 1.30097982 3.26638725 2.54021077
O -0.83228846 6.89481916 -2.20665866
Pu 0.41119515 8.54610501 -2.56178826
O 5.12752114 8.34869983 0.75584197
O -5.60221267 -6.49512629 1.21426387
Pu -1.84030751 6.26531021 -8.10665315
O 4.14035501 6.44902264 0.42459299
O 4.05920669 2.25274406 -9.53958613
Pu 1.72066370 -7.35213714 4.75545610
O -4.11632110 2.60244012 2.31653185
O 1.60746946 9.26092090 -1.19982271
Pu 2.68425515 -4.54031209 5.92824217
O 2.88025784 -1.11251225 -9.66869350
O 0.26295781 -6.03406163 -8.41407291
Pu -8.59965431 4.49771870 4.85888497
O 9.41104083 0.91868737 2.01162541
O 4.39134317 -3.12281542 -7.08980066
Pu -0.96842092 -6.24143172 -3.62531877
O -8.40795584 6.44050969 4.20932131
O -7.10635329 5.51175291 -3.82611646
Pu 4.97663203 5.81457185 2.22266888
O 3.90191233 4.36519817 1.50004037
O -8.00918602 3.12084135 -5.13679710
Pu 10.48595845 2.94941862 -1.73897091
O 6.37817560 4.68520455 6.01124252
O -1.94488203 5.60981727 7.90166559
Pu 3.26181963 1.46121749 -0.81428954
O -0.20878907 -1.39690171 -5.85118594
O -5.36342391 -3.53236365 4.77696629
Pu -0.93833243 0.85339689 -5.62071785
O 3.42615745 5.34761579 3.74953367
O 2.98723098 6.89280303 -4.74436034
Pu -9.81385248 1.09504916 6.50691754
O -9.08218040 2.97840899 6.64133110
O 9.73210711 2.82542846 -3.55060637
Pu -8.82333398 3.56023147 1.30735055
O 4.99592271 5.57993018 -1.65493033
O -3.21541287 3.93880912 5.03821691
Pu -9.12946423 0.14127577 0.65672634
O -9.58487629 3.73380326 3.24896042
O 1.67355248 -8.58217095 -5.68158867
Pu -8.11028659 -5.27642053 -1.66988462
O -2.26299949 -0.41594674 -0.04337560
O 1.77679612 4.24011935 -9.18334879
Pu -1.72414903 -2.52644455 6.04701165
O 4.43311197 1.58086813 1.33197770
O -3.80102570 6.12709274 6.01766736
Pu -4.52639524 7.07057959 0.51943273
O -3.01946855 0.32366876 -5.81220052
O 6.18760390 4.59997885 3.54286462
Pu -0.33126858 8.07804734 4.42325032
O 0.64597956 3.85377662 9.02078313
O 7.40405936 2.13192383 2.80711569
Pu -5.27000693 -0.99001170 5.26207872
O 0.74395527 0.30522524 -10.50439707
O 4.51395089 3.02611632 -1.26851077
Pu 6.59511196 -1.24009479 -3.78106704
O 6.91025765 -4.94248183 -1.55270360
O -2.37032597 6.02507764 -5.95387051
Pu 1.91560899 -9.00617083 1.81097212
O 6.33133362 5.03997357 0.96186219
O 10.33540528 0.98683130 -2.18772201
Pu 9.13439971 2.98800985 1.58269912
O 6.61697093 -4.53881876 2.30463000
O -1.25960895 1.49673850 7.27446550
Pu -3.43911923 -1.21799293 -1.80464373
O -0.37119117 7.25653924 -6.86140066
O -0.69820928 -1.49129890 -11.20304334
Pu 1.38553624 6.60989435 -5.92646990
O -8.88590725 -4.79624438 -3.67479240
O -0.78894253 -11.56124228 -2.06961603
Pu 2.07705888 -2.42918396 -1.09383638
O -7.69883886 0.78251545 -0.95020539
O -4.20029039 -3.73972899 8.81600844
Pu 3.61417252 -9.21917314 -2.08992991
O 6.36507882 -4.41642830 -6.96539192
O -0.66192038 -4.46918107 -2.66991982
Pu 3.07049716 8.25311829 -0.03270924
O 7.92576766 0.13414283 -2.90701289
O 4.02488866 -5.61053175 -5.96738262
Pu 2.87677174 -7.02074072 -4.87349786
O -3.78879146 3.90768344 -4.86438200
O -9.72133537 -0.49959268 -1.20036408
Pu -3.09869502 7.47698050 -2.30746043
O -0.13251804 -5.11413942 1.90399564
O 4.80312164 4.76139908 -7.28558759
Pu 4.73481030 -7.44288934 0.60359626
O 0.81685287 1.68590028 -4.55413248
O -3.56414398 3.51678886 0.03266717
Pu -3.77071371 1.32500103 -3.71873236
O 1.72086485 -4.04362836 -11.14975362
O -5.92010739 -7.32090437 -1.76762371
Pu 6.97850695 -3.71048867 5.80313504
O -4.43138712 -2.06475346 -7.20729684
O 6.18607649 -1.99252268 6.22769887
Pu 6.45396532 6.46810799 7.21172338
O -1.16421114 4.64855937 0.93495636
O -7.96254585 1.10830708 7.74236036
Pu 7.61280497 3.17863645 6.89678689
O -2.37976040 -7.90756463 -3.90447912
O -2.28968433 -1.98920429 8.00114552
Pu 5.77589520 3.92184129 -2.65415884
O -9.99238434 1.83953427 1.01318369
O -1.18454900 -3.79079329 -6.18639191
Pu -0.48909728 -3.40428946 3.01885940
O 6.56774650 -1.35764305 3.56269169
O -4.24222830 5.79681480 -1.40622029
Pu 2.50985639 -2.13462572 2.33705080
O 3.43365458 8.76354665 6.07067771
O 4.82765478 -0.19915800 -3.54402391
Pu 2.81415469 2.05687192 2.91412543
O 1.83709769 -2.81031755 -6.38609705
O 7.75374451 1.55346721 7.88639058
Pu 1.03107944 -11.34836067 -1.06936034
O -7.56585345 1.90466157 2.06374421
O 0.02613363 -8.25879394 0.97880899
Pu -6.48836318 -8.11404539 -0.06165163
O -7.13869894 -0.34281248 -6.50595229
O 2.83985126 -3.56184617 1.01162402
Pu 6.29879718 -2.39192432 -7.31328071
O -4.53232663 -8.33784736 -4.72772857
O -0.06495139 -2.19023400 -1.20348924
Pu 6.04091088 -6.80166914 -2.45147931
O 6.58722529 -6.95377454 -0.21771076
O -7.96338018 -5.58792305 3.07851657
Pu 3.20261534 4.82751945 -0.40566295
O -9.61973905 -1.59858912 -3.53659541
O -5.43507016 -3.56646439 1.61556029
Pu 0.11559701 -7.48134182 -6.86958856
O 5.33859534 -2.35358739 0.41047973
O -5.41179928 1.12869496 5.23951725
Pu -4.95657923 -3.66872806 6.99851917
O -2.15006655 -5.93632362 -0.24792830
O 1.58240388 2.25111551 -7.98736550
Pu 5.75959870 3.02263498 2.01690203
O -6.31189344 -2.19413230 6.92077047
O 4.84565109 7.37496360 3.35680826
Pu -3.14620088 1.59072163 0.35428941
O 1.10428675 4.66997172 -0.72213861
O -0.29849169 -2.99389010 0.88319310
Pu 8.08674708 0.40433369 3.70091438
O 4.52383794 2.80852469 3.73224054
O -0.40542057 6.15539009 -4.59268464
Pu -4.27057812 -5.51308982 -0.30072686
O 1.49706642 -3.61190416 3.44709187
O -6.63933303 4.29401880 -2.01772179
Pu -1.67933264 -0.14948912 8.30568998
O -6.30912271 -0.80077374 3.47777603
O 8.35306591 -0.13111257 5.60907511
Pu 1.95609915 -0.75430687 -7.10414032
O 6.91406108 0.32888559 -5.20594122
O 2.25025484 -9.13243056 3.93569766
Pu 8.08579558 1.98976809 -4.43133523
O -3.48742140 -5.84996218 1.91476329
O -0.32902316 5.43183663 -8.97462885
Pu 2.83237230 7.12093353 6.92504735
O 5.16017778 -0.00987613 7.93243149
O -0.67556723 -1.11721642 2.70189918
Pu 8.55631951 -4.23466222 -2.74289014
O -2.49196566 5.40737436 -3.07104896
O -2.37120911 0.83464025 -2.21854288
Pu -5.25515305 4.77730704 5.61398517
O -5.99279971 -5.34921778 6.61121563
O 1.70877075 6.94230091 0.81204073
Pu 5.48522941 -4.52034819 -4.97938200
O -0.23099702 -1.13955271 5.88041425
O 0.35616932 -0.37430305 8.52026131
Pu 4.23758848 6.94440600 -3.25728995
O -2.65725409 3.49661930 7.14812143
O -6.38851253 -5.16376077 -0.68631842
Pu 2.43559256 0.94668007 -9.75962683
O 1.54768991 -1.05002949 1.02360731
O -7.49713824 1.35189927 -3.18367772
Pu -0.53856040 -2.60108373 -3.87195207
O 6.65533661 8.20900390 6.21231637
O 8.96274013 4.68734402 2.63062261
Pu 7.96475759 4.80658138 4.38356439
O 10.58325175 -1.73149556 -0.73464928
O -2.22905735 1.55909381 9.37652702
Pu 1.91842346 -5.45048224 1.27946917
O 0.38068672 -6.40585697 -0.29550917
O -9.70651640 -0.86416183 6.95251587
Pu -6.87892067 2.78447312 7.43489689
O 8.27760265 5.48586528 6.50162286
O 1.56412350 1.74521414 -2.04234449
Pu 9.53773841 -0.88092213 -2.28585980
O 1.70378324 -2.21319836 -3.23478450
O -4.44011736 0.22220655 1.37685878
Pu -7.08810375 -1.22814694 -1.94073162
O -4.88069754 -0.92195315 -3.39081158
O -1.57209204 3.15234231 -6.39310627
Pu -5.75993699 -1.60166689 1.32363327
O 4.72915522 -5.67734862 -1.00835480
O 8.47219057 3.02144806 5.07284841
Pu -9.40667785 0.39017375 -3.01354140
O 9.16608484 -5.28889512 -0.98678392
O 3.15922361 -0.57534052 -1.39614941
Pu -7.01062950 6.62969029 2.78516760
O -1.56997960 8.68562426 -3.47028041
O 2.43316743 -7.66863198 -2.12950090
Pu -2.24381839 -4.02600689 9.04108836
O -3.46722419 8.58010728 4.98591133
O 4.62344724 8.06046037 -1.69596953
Pu -8.27971416 -3.09060119 -4.29614441
O 11.05547307 2.70719431 0.35884137
O -9.11298011 1.30816891 4.57668298
Pu 3.39973059 3.63717600 -8.10174221
O -1.02509221 -5.68596067 7.91942542
O -2.86040505 -6.74785022 4.03796438
Pu -8.58165439 4.03285574 -3.36040109
O 2.71914199 -7.07775096 0.06057378
O 8.52907284 -1.52434736 2.47948439
Pu 1.44842897 -2.21756949 -10.56711547
O -4.29010828 6.87709470 -3.92589114
O -8.02378822 -3.37889169 4.87497858
Pu -1.49731664 3.39025058 8.77894121
O -4.31489826 -7.83304382 -0.19452023
O -2.06432893 -1.60412350 -8.20361518
Pu -2.40157519 4.87605243 -1.01657427
O -1.40946276 8.45422824 2.65565896
O 4.30843871 3.57126696 -4.29202087
Pu -3.46315970 2.00425748 6.20365095
O -4.16982688 -3.63258941 -1.44984702
O -0.65740941 -0.53991526 -3.39960853
Pu -1.07416259 -6.79949580 2.23887049
O -1.68730303 -4.18428931 4.57211382
O -7.46397505 -0.32309525 5.39795234
Pu -0.17353190 2.13312250 5.64031056
O 0.53968578 -3.97672457 5.69331615
O 4.97886972 -7.57172950 2.64060403
Pu 3.30217113 -1.36564550 -4.09653844
O -6.80836424 3.07799343 5.22988452
O -5.33299233 -1.32119780 -0.85615264
Pu 7.03936080 -0.02422271 7.05762535
O -3.88509259 5.73288785 2.00919845
O 4.11027110 -5.55181639 -3.38975509
Pu -7.22001751 1.28303454 3.98973920
O 0.94030883 1.36883423 3.86275574
O 5.93799410 -0.48210205 -7.66351416
Pu -8.22975001 -1.88383847 6.25209167
O -9.03263567 4.64949238 -1.31927608
O 8.43415322 -3.41600765 1.03555902
Pu 2.70306815 -5.69372806 -1.76038615
O 10.70068635 -2.74560187 2.34094066
O 6.74586484 -2.70798853 -5.25886648
Pu -1.43938022 8.14895655 -5.33823690
O 7.19518477 -2.56803262 -2.08414161
O -9.90502232 2.41748098 -3.22165644
Pu -3.81483311 6.79296984 3.88385748
O -1.77979252 6.97621889 5.89130532
O -0.46825128 -3.35299050 -9.68222924
Pu -5.61642084 -1.40764090 -5.30074646
O 3.43938424 -0.43047921 -5.81576576
O -3.50874791 -0.05123617 6.81962915
Pu -2.80807185 -9.33306391 0.29385669
O -4.04308029 5.96907895 -7.78605641
O -7.50774701 -3.34242665 -2.17161621
Pu -4.07639472 -7.76549364 -2.88604102
O 1.43162131 -4.39454199 -0.75673166
O -2.24088340 6.69111770 -0.02337066
Pu -5.88029467 3.59388043 2.04041311
O -0.27472562 -7.87396376 -2.81885702
O -5.72099368 6.43843374 4.51888139
Pu 7.90569224 -5.56024084 0.43042461
O 3.76407559 2.67038480 -6.28105137
O -3.28105962 9.49850419 7.06202522
Pu -0.44596780 1.67240250 -2.50267141
O -2.54646614 -3.30694500 2.62685253
O 3.05051994 -1.04995940 5.96464290
Pu 4.98339424 8.47253756 4.91943849
O -7.25508451 4.37795645 3.22112478
O -3.68209416 8.57332895 -0.70299580
Pu -2.83003094 4.06803943 2.94005433
O 1.57683992 -7.04175092 2.50328720
O -7.55361333 -1.26254236 0.41437058
Pu -7.05129480 1.59056961 -5.79904306
O 7.26510364 3.80941098 -4.32420791
O -5.55707981 -8.99915037 1.52905209
Pu -7.21089882 -4.83205388 1.30681190
O -2.23294810 1.06778319 -8.84947921
O 7.10150411 -5.51790251 -3.85162089
Pu -1.23105974 -9.75538987 -3.10102367
O 2.71402000 5.30348631 6.06118959
O 0.05101482 0.41432512 -7.31918376
Pu 0.46730586 -8.25158638 -0.92230623
O 3.56575624 -3.67221395 -1.83182568
O 6.04588939 -5.17835195 4.94843486
Pu 0.77833235 5.36687997 -2.63552061
O 8.74339575 -5.80792092 2.29141729
O -0.29351281 1.23353531 0.58950450
Pu -2.87491640 10.38807721 5.27656375
O -1.79422872 -8.11565321 -7.05875542
O -2.57881045 -2.64357280 -3.07512614
Pu 6.07729706 6.97444328 -0.48003057
O 3.11338362 0.62526293 -7.87044692
O -3.00970216 8.11852080 -6.56238609
Pu -0.44935607 -0.97849467 0.40429449
O -2.68879152 -8.49094982 2.19344446
O -0.34788815 -6.93571259 4.30980590
Pu 5.75638736 4.16579270 -5.71517509
O -0.76246190 3.41138411 -1.42252842
O -4.81429286 4.51581766 3.60203538
Pu -0.69039993 -4.51433267 -0.45859759
O 6.53405421 2.32789049 -6.11514547
O -1.99386002 6.25684292 3.22935943
Pu 4.81575952 -1.29019432 4.49846900
O -3.88665361 -2.85387876 -5.22391795
O -7.05644765 3.40468974 0.07655407
Pu -4.55763162 6.69601900 -5.91996107
O 3.56000577 3.20803199 7.04318403
O 0.93458873 6.96619548 5.81757076
Pu -7.01484136 -5.00360750 4.81035961
O 4.59881540 -7.89682525 -3.67300434
O -7.49362389 -1.09612696 -4.03572343
Pu 1.37085512 -1.56853359 7.21376507
O -5.46849250 4.72031132 -6.22318062
O 1.36442045 -5.86805375 -3.73306282
Pu -1.70781126 4.49223611 -4.72727174
O -8.08309745 -6.89838629 -0.37899926
O 2.76639326 4.85527694 -2.67076935
Pu -6.38535009 2.21306408 -1.43898241
O 7.78820954 7.54332670 -1.20583589
O -2.86433031 -4.47353294 6.58728081
Pu -4.62777661 -7.50541587 2.54400582
O -1.29010889 -9.16516105 -0.99796065
O -0.55825361 -3.40418892 7.66665070
Pu 10.08239628 -1.24416244 1.15226552
O 5.56121535 0.36116636 5.35840629
O -3.45530138 -9.73625642 -1.89554230
Pu 2.85095931 -4.55847006 -7.15137006
O -5.14001818 2.81109280 -3.11474492
O 5.18258220 -8.23554957 -1.29000879
Pu -4.46517558 -4.25889306 -3.62700536
O 1.67508778 -3.72649764 -8.74535983
O 8.58201830 -3.52960237 4.75487315
Pu 4.52575832 4.21744168 5.31314327
O 0.55287483 4.19479095 -4.28117673
O 3.34323231 -5.92761576 4.64768654
Pu -3.62056250 -4.66657413 3.64716471
O 7.09537309 2.46102591 0.58420969
O 3.09911372 -9.16881479 0.18676730
Pu -0.06045577 -2.78549804 -7.70230326
O -0.86485666 9.76423017 5.15128694
O -6.10059882 5.56774359 1.27310933
Pu 7.47084104 1.13752742 -0.85899390
O -0.28929011 -4.15755389 9.89207406
O 8.39319205 -0.65644550 -0.39626346
Pu 1.07816437 -4.89126226 8.47868583
O -3.56872742 -5.80991973 -7.75025735
O -3.74053007 -2.19655637 5.70249280
Pu -0.96524752 0.85633532 3.08188974
O -1.88753087 2.46100465 -4.12527746
O 2.30019316 -3.26704613 7.43761275
Pu 9.29044337 -4.04766373 2.91334899
O -0.92321289 4.15840115 4.10525713
O 4.86426012 6.24165285 5.77635468
Pu -3.18193839 -3.85898169 -6.93796297
O 1.74650363 4.56494654 -6.41235222
O 1.00274003 -9.76087910 -2.18639991
Pu -1.04756463 -0.36318601 -9.67820500
O -1.27486477 -6.58850347 -5.56260755
O 8.79546574 2.82528373 -0.62262374
