420
ML-kMC step 9500
Pu 1.41343293 5.05560400 3.76996842
O 1.79058411 1.45028078 6.68286841
O 5.04327914 -2.74908284 -3.69198698
Pu 2.27724497 2.92206081 -4.86226123
O -4.98677760 7.80548536 2.27830274
O 8.94305455 -2.28011395 -3.43051747
Pu -7.33516933 5.62987231 -0.64988081
O 2.83741913 -11.22932829 -2.09459874
O -6.09864118 -3.31373877 -4.68350421
Pu -3.81323795 3.48502592 -7.02954899
O 0.91877039 -5.97574726 6.16014720
O 4.45242890 6.15337756 8.01809430
Pu 4.91053440 -5.58224977 3.34860940
O 2.23456048 2.70643219 0.60812378
O 5.43279967 5.61655030 -4.01718302
Pu -1.63873612 4.92076158 5.77239294
O -5.09447863 0.72370896 -5.10506406
O -4.43963900 1.37028712 -1.24989253
Pu -5.02454031 4.82609678 -3.37280844
O 6.78552505 2.15362654 -2.41480495
O 3.21865218 -0.34613360 3.13679597
Pu 1.71002720 3.88367708 7.32373907
O -5.15557067 1.94429071 -7.33620191
O -6.22669577 7.40426223 -0.52365030
Pu 0.27957855 -4.82058472 -9.73597012
O 1.90076022 7.02658812 -2.07356971
O -4.76713541 3.15115734 7.03791139
Pu 5.32162019 -3.64157849 -1.24154666
O -1.56042663 2.45482521 1.86808455
O -0.29728142 3.96907278 7.14309341
Pu -0.63578550 6.77769584 1.35502742
O 3.84060115 -5.57448339 1.52898360
O 0.96264557 3.72777750 5.41785764
Pu -3.99106177 -0.10818348 -7.53987846
O 1.87655382 -6.24005680 -6.57398452
O 0.51899793 8.07014597 -4.59159613
Pu 0.18948670 3.15906367 0.74232726
O -2.29959612 4.07864564 -8.25532706
O 4.53832247 -3.27571260 3.96607481
Pu -0.09636782 3.23928537 -8.10979959
O -6.93061194 4.58821965 6.79405585
O 0.59372956 -1.16056054 -8.55575218
Pu -3.34221441 -7.13007384 -6.16741187
O -3.90504064 -5.44411901 -5.12597933
O -5.45655155 -6.07323766 3.89578145
Pu -1.27378603 -5.83615379 5.70309437
O 5.77462784 2.26024452 6.75108617
O 1.19919035 -10.53037798 0.66779994
Pu -3.07487884 7.20215006 7.25474872
O -2.06726171 1.57832787 4.56067186
O -8.20162345 5.76723045 1.25147067
Pu 4.92940492 0.90259643 -6.31953279
O 2.84749570 -5.55006894 7.31961113
O 0.69746998 6.75268148 3.26877449
Pu 3.79141806 1.10008260 6.73210194
O -3.51462669 -5.82504915 -2.73644995
O -8.61307269 -4.26864173 -0.20453589
Pu 6.76043749 -2.44053962 1.89788311
O 1.12642747 3.36413008 2.52990068
O -0.82092587 6.80568783 -2.17837862
Pu 0.28729182 8.62886808 -2.64021016
O 4.97185797 8.14723102 0.97048099
O -5.86022584 -6.54646353 1.31720428
Pu -1.93046394 6.14073540 -8.03693373
O 3.91386466 6.49885095 0.33315490
O 3.82748583 2.42596068 -9.48857720
Pu 1.77227516 -7.33076465 4.77826260
O -4.06570597 2.47996531 2.28062158
O 1.57850009 9.20370859 -1.16473147
Pu 2.38085484 -4.25245365 5.46025150
O 2.87313430 -0.96615470 -9.35319909
O 0.25748054 -5.53791993 -7.87750648
Pu -8.47533354 4.34408568 4.90078192
O 9.53929178 0.84205856 2.19544214
O 4.37936632 -3.01232810 -6.45154769
Pu -1.00235871 -6.10851401 -3.62010436
O -8.19090758 6.26964826 4.10838903
O -7.03649802 5.77642921 -3.66136353
Pu 4.97648217 5.98110947 2.21483531
O 4.05927171 4.25381227 1.38749183
O -7.94072065 3.19435007 -5.30607497
Pu 10.21032109 3.00290023 -1.74265202
O 6.38335527 4.68430298 6.13306377
O -2.03256508 5.74282010 8.10111960
Pu 3.23456894 1.53144611 -0.80135575
O -0.28697962 -1.30386929 -5.82678354
O -5.30999072 -3.53431072 4.65784852
Pu -0.89427502 0.76322998 -5.65563610
O 3.33108259 5.40002695 3.61944950
O 2.83037293 7.10747538 -4.80425856
Pu -9.49182286 1.01041659 6.47441607
O -8.67056187 2.90771130 6.55610764
O 9.64847523 2.64143847 -3.71123790
Pu -8.81717721 3.45165233 1.59522568
O 4.83587453 5.50688253 -1.54170328
O -3.30958089 3.87452351 4.90485624
Pu -8.88168397 0.14092898 0.61924860
O -9.79321901 3.86282708 3.31584026
O 1.42150335 -8.27780912 -5.53469672
Pu -7.94081349 -5.27813113 -1.82402746
O -2.49009969 -0.55316813 -0.06065946
O 1.53765207 3.09924202 -9.26157234
Pu -1.65165643 -2.64117797 5.99171030
O 4.11939632 1.30939683 1.29867855
O -3.78376249 5.87271054 5.80503991
Pu -4.43243129 7.14739384 0.47479562
O -2.88570449 0.31953762 -5.78715280
O 5.97305530 4.65131012 3.61600106
Pu -0.36988151 7.90867653 4.49988824
O 0.74616288 3.70008456 9.10950351
O 7.48411386 2.26194143 3.08355113
Pu -5.07418969 -0.95490027 5.20839338
O 0.68745536 0.49061531 -10.29646466
O 4.46428337 2.97050836 -1.16926591
Pu 6.51354554 -1.27259365 -3.72110852
O 7.01352136 -4.86702130 -1.48694060
O -2.36177019 5.98034907 -5.84955574
Pu 2.10030592 -9.05043323 1.81503514
O 6.28104715 5.01875894 0.86638427
O 10.13284445 0.94889851 -2.09328471
Pu 9.08376223 2.86862861 1.45610836
O 6.46941583 -4.44919047 1.96207386
O -1.45969851 1.45939980 7.06748500
Pu -3.43911923 -1.21799293 -1.80464373
O -0.38099192 7.08090762 -6.84207346
O -0.50460450 -1.50939658 -10.91713907
Pu 1.35927141 6.38184089 -5.94783042
O -8.68550809 -4.96792645 -3.62608603
O -0.96193744 -11.27360252 -2.03772957
Pu 2.03436284 -2.20368927 -1.24738926
O -7.40623378 0.77845493 -0.89345117
O -3.82729044 -3.87577031 8.61138920
Pu 3.63579556 -9.31730789 -2.22157521
O 6.28569830 -4.39415161 -6.82838762
O -0.67394145 -4.34663123 -2.66937831
Pu 2.88549063 8.30870822 0.02520795
O 7.91074364 0.19485713 -2.96699536
O 3.95359872 -5.54113216 -5.77939984
Pu 2.92265872 -7.02850436 -4.68634999
O -3.50090935 3.64922958 -4.77175209
O -9.40041368 -0.48626007 -1.14424077
Pu -3.10151679 7.47086429 -2.30289305
O -0.09387237 -5.22858106 1.83000900
O 4.55612206 5.12524407 -7.22198722
Pu 4.79441041 -7.51546773 0.51953535
O 0.72962456 1.42330840 -4.48237627
O -3.66018879 3.47980516 0.04306274
Pu -3.70566081 1.36517808 -3.69304663
O 1.51292135 -4.03430925 -11.06269031
O -5.90420809 -7.00933264 -1.93812333
Pu 6.77114855 -3.59281735 5.88818109
O -4.71607039 -1.92341011 -7.30620496
O 5.83018197 -1.95382008 6.20793619
Pu 6.37205656 6.44517729 7.23025032
O -1.16421114 4.64855937 0.93495636
O -7.65711101 1.02360428 7.85777763
Pu 7.62466039 3.19034003 7.04377892
O -2.41821591 -7.98791587 -3.92289755
O -2.19274974 -2.03787745 7.94129903
Pu 5.72818030 3.87865145 -2.56817397
O -9.91703768 1.75798209 0.98558252
O -1.36453240 -3.70001677 -5.67216106
Pu -0.43753094 -3.46398274 3.00160063
O 6.49252185 -1.14938635 3.46309121
O -4.25211382 5.76095013 -1.51954578
Pu 2.46444941 -1.92682777 2.04341052
O 3.55440928 8.76880284 6.28514415
O 4.76171794 -0.03949532 -3.94338749
Pu 2.68345886 1.96934510 2.76591173
O 1.79776005 -2.80061656 -6.37601668
O 8.04992014 1.46343368 7.95005263
Pu 1.01049329 -11.31852788 -1.08127580
O -7.43214706 1.52699487 1.87171757
O -0.42737684 -8.31514403 0.98277443
Pu -6.37397100 -8.06670823 -0.18759471
O -6.82070979 -0.37777831 -6.41666985
O 2.83874413 -3.44562280 0.80333823
Pu 6.20120402 -2.46297120 -7.21328879
O -4.75782412 -8.17158822 -5.03644956
O -0.13288842 -2.29768558 -1.30839830
Pu 5.99062586 -6.66282401 -2.38566019
O 6.68707843 -6.93320486 -0.13275503
O -7.95677623 -5.39755869 2.93997103
Pu 3.14783797 4.74625311 -0.43749939
O -9.86763318 -1.32708028 -3.86183268
O -5.55339302 -3.45886455 2.13346432
Pu 0.15334221 -7.24741924 -6.92279863
O 5.36956670 -2.37671392 0.48145839
O -5.16250461 1.09028378 5.22905303
Pu -4.80772448 -3.56701557 6.96881071
O -2.28338772 -5.75990564 -0.32531122
O 1.61428631 2.39825984 -7.03854463
Pu 5.75959870 3.02263498 2.01690203
O -6.17850044 -2.14631442 6.83363617
O 4.99962752 7.54005304 3.30557836
Pu -3.18772747 1.49877550 0.37382546
O 1.09768709 4.68025010 -0.51113450
O 0.02481471 -3.01164482 1.01222996
Pu 8.15650486 0.27701673 3.68304126
O 4.27425025 2.69872142 3.66969378
O -0.46195030 5.92350762 -4.54029159
Pu -4.25467159 -5.40148442 -0.23806527
O 1.82413891 -3.47527704 3.29538381
O -6.57639796 4.18430572 -2.15517641
Pu -1.86772676 -0.11970945 8.48009727
O -6.11709636 -0.46582099 3.53988156
O 8.24178167 -0.45811653 5.59770074
Pu 2.00158520 -0.62779701 -7.20026683
O 6.82882654 0.18388153 -5.15170911
O 2.27924445 -9.10734329 3.79661485
Pu 7.92551841 1.91720137 -4.44340678
O -3.46130149 -5.80775689 1.76823742
O -0.25298130 5.17909426 -8.69457557
Pu 2.70094096 6.92497510 6.71747184
O 4.79141642 0.08844288 8.14176750
O -0.16400879 -1.14563701 2.47791034
Pu 8.50304185 -4.10828050 -2.85791923
O -2.53517548 5.20928622 -3.00130172
O -2.41405004 0.96668312 -2.12881602
Pu -5.26159163 4.66144725 5.51041874
O -6.40865411 -4.89347012 6.56079613
O 1.33056757 6.95317967 0.83595383
Pu 5.53203031 -4.41391330 -4.92581497
O -0.24930142 -1.18143207 5.61038487
O 0.22606295 -0.33334019 8.32824002
Pu 3.97356740 6.62115721 -3.07895489
O -2.54824915 3.56596531 7.05008463
O -6.27845736 -5.04402078 -0.54290371
Pu 2.42540438 1.13869738 -9.66889062
O 1.44103313 -1.03618281 0.27448789
O -7.40936688 1.25033339 -3.25237645
Pu -0.57709509 -2.49604891 -3.78534309
O 6.89717112 8.14280288 6.07033184
O 8.80866913 4.54288443 2.62661087
Pu 8.02370628 4.66080934 4.36529468
O 10.65362429 -1.61453988 -0.71141805
O -2.31199649 1.56112302 9.57523732
Pu 1.90844701 -5.30191597 1.18090594
O 0.40515536 -6.28623603 -0.13285165
O -9.80202131 -0.83848949 6.93734593
Pu -6.63315145 2.52554369 7.24282711
O 8.47274464 5.22708032 6.35248290
O 1.54739941 1.81317132 -2.02149834
Pu 9.36340415 -0.84583746 -2.09440402
O 1.65391412 -2.20171138 -3.29418257
O -4.30879639 0.18623853 1.35133748
Pu -7.00538267 -1.16238097 -1.80894943
O -4.81627574 -0.74582380 -3.09353899
O -1.37528506 2.97659270 -6.45082694
Pu -5.56425452 -1.45993701 1.27704117
O 4.75918023 -5.70277643 -0.91930174
O 8.50568452 2.82825741 5.01906912
Pu -9.45741347 0.47057051 -2.90062586
O 9.29796509 -5.27707379 -1.53806602
O 3.07411505 -0.47206015 -1.49423356
Pu -6.93787497 6.70161673 2.69994025
O -1.76090470 8.74186525 -3.33161868
O 2.52904699 -7.52052370 -2.31411147
Pu -1.90312057 -3.99581852 8.93383250
O -3.32933934 8.34980891 4.88490810
O 4.38857444 8.08534646 -1.64565762
Pu -8.34444989 -3.02814256 -4.38340109
O 10.55071571 2.67050137 0.18318423
O -8.90841851 1.48860771 4.53917652
Pu 3.20792638 3.74774858 -8.11994614
O -0.81698175 -5.62298207 7.77848422
O -2.66774757 -6.34657274 4.03544174
Pu -8.48191166 4.23739414 -3.55373728
O 2.48858125 -7.21185917 -0.06885750
O 8.51771763 -1.45789742 2.70713279
Pu 1.50463373 -1.94809000 -10.45657003
O -4.08987842 6.96050273 -3.92941178
O -8.16647293 -3.33051488 4.81958783
Pu -1.53568739 3.33952233 8.78455153
O -4.21556675 -7.59695152 -0.13308079
O -2.10413781 -1.70669328 -7.97605246
Pu -2.46436471 4.76415679 -0.98746756
O -1.44007526 8.22168732 2.61822274
O 4.14363029 3.54477691 -4.12501457
Pu -3.43741952 1.95612889 6.07743263
O -4.09076087 -3.44546207 -1.46236625
O -0.67443422 -0.29939089 -3.45652226
Pu -1.25674181 -6.91577380 2.32490939
O -1.84277917 -4.02869100 4.50000591
O -7.33946775 -0.20397455 5.51172535
Pu -0.02974529 1.92250496 5.71749953
O 0.24829538 -3.93382940 5.09986911
O 4.76377984 -7.50974041 2.57960738
Pu 3.29889757 -1.39918835 -4.07457207
O -6.66170054 2.92109949 5.03947645
O -5.26996449 -1.30330543 -0.66728678
Pu 6.75809752 -0.03757597 6.96443833
O -3.74092613 5.69766197 1.93555972
O 4.40267249 -5.63340336 -3.41391224
Pu -6.95168590 1.36361957 3.98874095
O 0.87329882 1.38936782 3.97680218
O 5.72002407 -0.59917869 -7.29298221
Pu -8.18230751 -1.93820491 6.23766189
O -8.89559854 4.54932278 -1.49643413
O 8.52754319 -3.44513040 1.02179630
Pu 2.69383440 -5.52478217 -1.93756843
O 10.83901105 -2.53752846 2.53269276
O 6.75992273 -2.77182753 -5.23488912
Pu -1.41758408 8.01686745 -5.26936265
O 6.95512324 -2.48692472 -2.07625164
O -9.53083962 2.44707853 -3.23879403
Pu -3.84104870 6.78631406 3.76837185
O -1.56190179 7.03213662 5.78792234
O -0.55674596 -3.07608208 -9.31134441
Pu -5.56635229 -1.40392651 -5.02342649
O 3.51447009 -0.62265399 -5.86231363
O -3.47479332 -0.04954324 6.82060859
Pu -2.81678185 -9.02079986 0.20766683
O -4.09972551 6.01928721 -7.71809420
O -7.31255329 -3.28937272 -2.57007656
Pu -4.31029033 -7.70929079 -3.03111169
O 1.46828324 -4.41351677 -0.81207264
O -2.20240142 6.62980047 -0.15202001
Pu -5.54654246 3.68140983 1.62564557
O -0.31652328 -7.86890028 -2.90128624
O -5.83969206 6.61077626 4.54288715
Pu 7.84955471 -5.46695009 0.45133184
O 3.86878570 2.87824606 -6.20606863
O -3.13012022 9.20219644 7.18187282
Pu -0.49181965 1.68476478 -2.45741592
O -2.41610846 -3.10034437 2.40138120
O 3.20736308 -0.99369782 5.92242439
Pu 5.06468950 8.38026104 5.02237377
O -7.24421709 4.08303769 3.04109089
O -3.66501735 8.58689237 -0.69615763
Pu -2.74243381 4.06001467 2.88321135
O 1.59365109 -7.24740849 2.72226434
O -7.37302424 -1.32034081 0.54025185
Pu -6.92089244 1.56166933 -5.59612078
O 7.00344902 3.61312475 -4.22891419
O -5.43082241 -9.09609352 1.39220635
Pu -7.18112471 -4.86564151 1.27166581
O -2.65285738 1.05721241 -8.52394302
O 6.94316509 -5.33824614 -3.76840236
Pu -1.26596505 -9.63697271 -3.10308289
O 2.73207695 5.01914039 5.88485284
O -0.03762958 0.86329091 -7.59371337
Pu 0.67014367 -8.07719441 -0.87621667
O 3.45424517 -3.55461525 -1.91073595
O 6.01189633 -5.10775508 4.89966627
Pu 0.58062009 5.22043089 -2.52373002
O 8.79790809 -5.64794532 2.13462765
O -0.55499217 1.02239785 0.43757546
Pu -2.71007300 10.11719250 5.29603598
O -1.69073902 -8.01506978 -7.29435293
O -2.54937082 -2.49861154 -3.06708638
Pu 5.80234774 7.05028804 -0.63726344
O 3.41913161 0.74539052 -7.72578174
O -2.96575412 8.22186380 -6.58698397
Pu -0.63726211 -0.98577645 0.25307515
O -2.76506995 -8.43685326 2.23180339
O -0.23425099 -6.99299049 4.40189603
Pu 5.68048172 4.27191864 -5.72049978
O -0.87392402 3.58013501 -1.41641676
O -5.04300287 4.89436288 3.41075178
Pu -0.68638123 -4.49569171 -0.57022577
O 6.62458403 2.53823188 -6.21060813
O -1.99193168 5.93153249 3.44635840
Pu 4.80785909 -1.27778976 4.37492051
O -3.99382194 -2.58960240 -4.97583381
O -6.93885500 3.40383368 0.19099954
Pu -4.41430879 6.85815751 -5.90525488
O 3.50631463 3.10378111 6.61174145
O 0.92573441 6.97834972 5.80027409
Pu -6.98371113 -4.92179891 4.63931193
O 4.40706928 -8.26566710 -3.91311433
O -7.36200226 -1.13251844 -3.85789275
Pu 1.37768762 -1.51745963 7.20970091
O -5.18578451 4.89213214 -5.65006877
O 1.50265963 -5.80605829 -3.63486566
Pu -1.52360435 4.20011808 -4.78753183
O -8.09389923 -7.06335424 -0.77028317
O 2.65263878 4.87551316 -2.77770170
Pu -6.29255242 2.25013160 -1.55590554
O 7.50598342 6.40383763 -1.54804298
O -2.78064420 -4.54629968 6.58461606
Pu -4.65755046 -7.55157840 2.73710235
O -1.21412151 -9.16787824 -1.00234172
O -0.30700409 -3.26757239 7.59283657
Pu 10.11878410 -1.11733641 1.27976099
O 5.47671830 0.33965759 5.24600051
O -3.54738993 -9.25910541 -1.85218237
Pu 2.80247291 -4.44409110 -7.05414019
O -5.33429528 2.74241103 -3.23725888
O 5.07728971 -8.19624316 -1.40687261
Pu -4.47833098 -4.14190982 -3.52420546
O 1.65928065 -3.53930878 -8.61773804
O 8.33479710 -3.45152759 4.70273157
Pu 4.53228161 4.19467938 5.16621460
O 0.44730191 3.84799983 -4.09144800
O 3.18567549 -5.84232407 4.61732802
Pu -3.69867480 -4.40447337 3.50136682
O 6.92295174 1.94967768 0.85257459
O 3.51358351 -9.39000003 0.19362301
Pu -0.17079853 -2.87739014 -7.32923984
O -0.57178444 9.84674509 5.12370404
O -5.97557877 5.61766191 0.91176267
Pu 7.31745596 1.05468005 -0.91337310
O -0.18663383 -4.34034042 9.88632006
O 8.30893098 -0.57254004 -0.21481361
Pu 1.22754012 -5.13107981 8.26106604
O -3.43581366 -5.31528778 -7.56613850
O -3.61511550 -2.30719109 5.59672127
Pu -0.94188078 0.90057850 3.00560478
O -1.74962582 2.22699047 -4.01551646
O 2.27016162 -3.30235811 7.27232306
Pu 9.56916759 -4.03329806 3.10425213
O -0.92321289 4.15840115 4.10525713
O 4.68261731 6.47548873 5.71543649
Pu -3.33552758 -3.55201277 -6.71663585
O 1.81716956 4.58039780 -6.48818459
O 1.22039981 -9.58620391 -2.14723583
Pu -1.19171143 -0.20727949 -9.25293612
O -1.26574965 -6.44256890 -5.58490062
O 8.42594929 2.76434222 -0.53670227
