420
ML-kMC step 8000
Pu 1.41224922 5.16973321 3.99126651
O 1.74959465 1.49919649 6.55363815
O 5.04327914 -2.74908284 -3.69198698
Pu 2.25918051 3.13301501 -4.87622228
O -5.04836483 7.79089413 2.48043217
O 8.91875659 -2.35245546 -3.57588001
Pu -7.44503538 5.63980748 -0.59726326
O 3.18091700 -11.29202863 -1.73821295
O -6.11489395 -3.37302663 -4.61918292
Pu -3.81323795 3.48502592 -7.02954899
O 0.96157357 -5.96886075 6.05999582
O 4.46621915 6.46870558 7.86500384
Pu 4.91053440 -5.58224977 3.34860940
O 2.18391208 2.61040760 0.57935196
O 5.52724023 5.69614461 -4.07903254
Pu -1.64297126 4.94132167 5.85254430
O -5.25425904 0.78034456 -5.07823718
O -4.44290000 1.24217341 -1.39115802
Pu -5.05320522 4.87209026 -3.32165828
O 6.76397608 2.20574996 -2.35931000
O 3.40247682 -0.56063543 3.18913357
Pu 1.69776645 3.88811445 7.30378111
O -4.71122820 1.65231125 -7.37871023
O -6.33223090 7.21789839 -0.52989036
Pu 0.20795180 -5.00240501 -9.89219766
O 2.04331917 6.84101508 -2.17777195
O -4.76713541 3.15115734 7.03791139
Pu 5.33515333 -3.62036297 -1.20824246
O -1.62844039 2.47058151 1.90566898
O -0.31305615 3.71863987 6.93884128
Pu -0.58634891 6.72307506 1.45510975
O 3.89869118 -5.61925018 1.73991899
O 0.84677029 3.85720814 5.28099755
Pu -3.74797596 -0.19380164 -7.64735231
O 1.93511200 -6.19788778 -6.52389069
O 0.54081363 8.10724456 -4.58392101
Pu 0.21346566 3.28773245 0.71139613
O -2.29967068 4.10288243 -8.26760539
O 4.53832247 -3.27571260 3.96607481
Pu -0.09250288 3.25720036 -8.19192638
O -6.93478587 4.72598775 6.77619212
O 0.72490356 -1.22752218 -8.69284782
Pu -3.33704523 -7.03656181 -6.27220072
O -3.80144626 -5.31429705 -5.12646502
O -5.32460750 -5.87903979 3.80860022
Pu -1.27378603 -5.83615379 5.70309437
O 5.73232913 2.46025928 6.52145994
O 1.12517222 -10.29043620 0.78277999
Pu -3.02907548 7.41172984 7.08043228
O -2.06726171 1.57832787 4.56067186
O -8.31755665 5.81555270 1.26666460
Pu 4.95798057 0.89070838 -6.60221983
O 2.80264202 -5.40929430 7.43287254
O 0.65130528 6.76938447 3.24774432
Pu 3.79141806 1.10008260 6.73210194
O -3.55070548 -5.90535725 -2.76455520
O -8.51110031 -4.22599324 -0.05157131
Pu 6.76043749 -2.44053962 1.89788311
O 1.21699547 3.42752891 2.57910760
O -0.82092587 6.80568783 -2.17837862
Pu 0.37618192 8.54940721 -2.54012864
O 5.10439613 8.14756643 0.90953350
O -5.81840083 -6.44417960 1.33028982
Pu -1.92249681 6.24717558 -8.11425740
O 4.00967367 6.42744174 0.40049272
O 4.09334309 2.39891110 -9.53235195
Pu 1.72066370 -7.35213714 4.75545610
O -4.02846065 2.42343856 2.31600779
O 1.68963334 9.05035422 -1.16705603
Pu 2.37255123 -4.31440210 5.68691973
O 2.79374866 -0.96196450 -9.48766254
O 0.19892425 -5.78614480 -8.12672826
Pu -8.50510502 4.43108991 4.84058028
O 9.38912111 0.74146905 2.08715905
O 4.20992784 -2.95583123 -6.90252484
Pu -0.98990889 -6.11415315 -3.62499646
O -8.27091616 6.29952023 4.28181293
O -6.94022582 5.67004111 -3.70169677
Pu 4.97648217 5.98110947 2.21483531
O 3.90020277 4.36599434 1.49664294
O -7.80912086 3.22271969 -5.26996817
Pu 10.36636444 3.06877033 -1.99590952
O 6.33483920 4.66454143 6.14624673
O -1.77287345 5.67377191 7.73271939
Pu 3.26181963 1.46121749 -0.81428954
O -0.28697962 -1.30386929 -5.82678354
O -5.37986904 -3.48707020 4.71205230
Pu -0.95832289 0.77110423 -5.60336218
O 3.33108259 5.40002695 3.61944950
O 2.92958265 6.89322979 -4.84950498
Pu -9.57626196 1.11671551 6.39272351
O -8.77713900 2.97125150 6.39564217
O 9.66659924 2.76868219 -3.76044034
Pu -8.93972110 3.54142568 1.61143608
O 4.91967288 5.57211674 -1.54759261
O -3.39199259 3.83145564 4.94607489
Pu -8.91757550 0.12846890 0.64264399
O -9.79989662 3.78940121 3.38351795
O 1.60321782 -8.46931821 -5.53562046
Pu -8.04837538 -5.34484033 -1.84528064
O -2.49009969 -0.55316813 -0.06065946
O 1.58341322 3.34258752 -9.41130791
Pu -1.60341968 -2.71118497 6.05590678
O 4.26968001 1.49199079 1.32407623
O -3.79734441 5.93006763 5.87770874
Pu -4.43243129 7.14739384 0.47479562
O -2.88570449 0.31953762 -5.78715280
O 6.00114942 4.53004874 3.57244215
Pu -0.36988151 7.90867653 4.49988824
O 0.58332440 3.73653182 9.09788001
O 7.39677628 2.12698562 2.95210272
Pu -5.07418969 -0.95490027 5.20839338
O 0.82438573 0.43662049 -10.54396511
O 4.51631357 3.02045579 -1.25851671
Pu 6.67779733 -1.30221431 -3.68836384
O 6.88690370 -4.91222726 -1.55532972
O -2.32363519 5.98203884 -5.87953132
Pu 2.05123210 -9.01069349 1.92611279
O 6.35783005 5.03887998 0.96684887
O 10.22187285 0.89238612 -2.13448012
Pu 9.08792244 2.98366685 1.36691094
O 6.44590282 -4.51711245 2.00360407
O -1.46286369 1.47871492 7.11579995
Pu -3.43911923 -1.21799293 -1.80464373
O -0.38474715 7.31885164 -6.89220119
O -0.47007903 -1.48781967 -11.25430552
Pu 1.35927141 6.38184089 -5.94783042
O -8.88241440 -4.76431124 -3.56058892
O -0.61201523 -11.38459765 -1.90824555
Pu 2.06026057 -2.30320099 -1.14043665
O -7.57846592 0.72163498 -0.84285735
O -4.06031936 -3.97253741 8.98777905
Pu 3.65918843 -9.40525088 -2.13687585
O 6.29652683 -4.52400732 -6.96679265
O -0.67426933 -4.34639104 -2.67252039
Pu 3.07762775 8.16183615 -0.05250730
O 7.91745921 0.26448227 -2.88712016
O 3.95359872 -5.54113216 -5.77939984
Pu 2.92265872 -7.02850436 -4.68634999
O -3.49976737 3.81282413 -4.78050682
O -9.40041368 -0.48626007 -1.14424077
Pu -3.10151679 7.47086429 -2.30289305
O -0.01973263 -5.17942201 1.84061028
O 4.79193510 5.08793933 -7.26483186
Pu 4.79441041 -7.51546773 0.51953535
O 0.77982889 1.51036243 -4.58322101
O -3.56414398 3.51678886 0.03266717
Pu -3.70429161 1.36767949 -3.69196584
O 1.48969329 -3.94485082 -11.17856095
O -6.10130956 -7.22695870 -2.07596066
Pu 6.79722580 -3.67984909 5.89928357
O -4.51118303 -2.01748849 -7.33487922
O 5.96745604 -1.95624284 6.33288257
Pu 6.39804349 6.38452827 7.05511992
O -1.16421114 4.64855937 0.93495636
O -7.85596032 1.21802072 7.81457919
Pu 7.61453893 3.29819670 6.83663397
O -2.31002953 -7.97080435 -3.86761083
O -2.29334202 -2.04854175 7.91393012
Pu 5.72818030 3.87865145 -2.56817397
O -9.89312651 1.98225477 0.91730052
O -1.25040726 -3.74930455 -6.04504749
Pu -0.43753094 -3.46398274 3.00160063
O 6.51217186 -1.38031077 3.61835569
O -4.29372250 5.84959060 -1.46012289
Pu 2.61778378 -2.05132923 2.12180742
O 3.33977563 8.69971793 6.13067040
O 4.74167218 -0.05131076 -3.94348375
Pu 2.66860752 1.93469338 2.77258219
O 1.77216515 -2.73317791 -6.31907465
O 7.73553201 1.65708944 7.92598448
Pu 1.23038870 -11.38129438 -1.07077437
O -7.52788485 1.80695443 1.95688871
O -0.23834425 -8.19541913 1.10438280
Pu -6.36891664 -7.95163503 -0.11662399
O -7.13359503 -0.36628839 -6.36222566
O 2.83756599 -3.40417713 0.77275616
Pu 6.26690762 -2.49844049 -7.24946824
O -4.59081402 -8.11259788 -5.06999792
O -0.13288842 -2.29768558 -1.30839830
Pu 5.95320287 -6.73600658 -2.41430235
O 6.60002027 -6.89429718 -0.11566555
O -7.84516932 -5.61935542 2.93207139
Pu 3.14783797 4.74625311 -0.43749939
O -9.70330596 -1.37924049 -3.84570270
O -5.49406502 -3.54859248 1.88799784
Pu 0.09666303 -7.36706966 -6.92734830
O 5.36956670 -2.37671392 0.48145839
O -5.16933925 1.12484080 5.16966419
Pu -4.94162267 -3.72455174 7.04517109
O -2.28322967 -5.75948552 -0.32540332
O 1.55901112 2.32661173 -7.34215873
Pu 5.75959870 3.02263498 2.01690203
O -6.15788986 -2.11302381 6.79815645
O 5.01871926 7.55853359 3.28468781
Pu -3.17810751 1.49063146 0.37929822
O 1.23365478 4.75517365 -0.47105312
O -0.28214536 -3.00796012 0.95328626
Pu 8.08674708 0.40433369 3.70091438
O 4.39935180 2.77258383 3.68949101
O -0.43648589 5.99968128 -4.55412829
Pu -4.25467159 -5.40148442 -0.23806527
O 1.74994138 -3.65954117 3.42315248
O -6.72399252 4.16218217 -2.04764386
Pu -1.83202186 -0.12754377 8.41890073
O -6.01245346 -0.70302211 3.28540217
O 8.29292536 -0.50212205 5.51876672
Pu 1.95843931 -0.72283187 -7.21228859
O 6.67723013 0.34730965 -5.07230931
O 2.17715979 -9.35842759 3.86571754
Pu 7.92551841 1.91720137 -4.44340678
O -3.46130149 -5.80775689 1.76823742
O -0.28366586 5.23293383 -8.63265012
Pu 2.69013507 6.90401295 6.71042835
O 4.86612251 -0.01694256 7.87328403
O -0.35138030 -1.11134337 2.60890077
Pu 8.51503407 -4.29417805 -2.72624524
O -2.68695019 5.38480174 -2.93479333
O -2.37094170 0.84836305 -2.04631600
Pu -5.34999822 4.73961461 5.60351423
O -6.42064982 -5.16551163 6.60361194
O 1.60029743 6.93642659 0.76679270
Pu 5.55747604 -4.57627685 -5.02445192
O -0.17159369 -1.18745249 5.68141023
O 0.25627074 -0.34911281 8.39116669
Pu 3.97356740 6.62115721 -3.07895489
O -2.54994032 3.55541728 7.04005438
O -6.22502797 -5.07083514 -0.62754718
Pu 2.44896193 1.01469151 -9.66386841
O 1.62288599 -1.07500452 0.70627031
O -7.37488403 1.38429718 -3.10148341
Pu -0.51104973 -2.41555353 -3.91581119
O 6.71254867 8.14942889 6.14740253
O 8.87046651 4.64158531 2.57596092
Pu 7.86635503 4.70423310 4.24517316
O 10.54613328 -1.62921035 -0.71668817
O -2.25100534 1.59385604 9.37261581
Pu 1.91842346 -5.45048224 1.27946917
O 0.41612781 -6.37020913 -0.18751193
O -9.87338822 -0.72244272 6.90965271
Pu -6.73336436 2.73485687 7.28506338
O 8.25524328 5.40205032 6.26673873
O 1.56412350 1.74521414 -2.04234449
Pu 9.55788130 -0.90517084 -2.20163026
O 1.70928722 -2.13235896 -3.22668601
O -4.25691537 0.23219943 1.44947866
Pu -7.08810375 -1.22814694 -1.94073162
O -4.94463138 -0.55439536 -3.31086437
O -1.41571430 3.02462441 -6.30250694
Pu -5.56425452 -1.45993701 1.27704117
O 4.77354061 -5.71317387 -0.91052772
O 8.39253279 2.76823510 5.09041752
Pu -9.52666233 0.48016892 -2.86588557
O 9.28881709 -5.24294857 -1.20309034
O 3.40155440 -0.61628151 -1.65533777
Pu -6.93834344 6.59876360 2.66701325
O -1.66171360 8.77830722 -3.38073757
O 2.34724373 -7.66492201 -2.13696953
Pu -2.01390124 -4.04139431 8.88546631
O -3.38966991 8.43643611 4.84581564
O 4.53133408 8.13352655 -1.59985918
Pu -8.35580076 -2.95227258 -4.43780434
O 10.72316057 2.88573427 0.14751424
O -8.95141221 1.13661077 4.46065834
Pu 3.28342115 3.69200595 -8.08837847
O -0.77466624 -5.70768292 7.71146692
O -2.71485043 -6.26180672 4.03800006
Pu -8.36684747 4.10954294 -3.40470643
O 2.61700609 -7.08315968 0.12525460
O 8.48176051 -1.62159078 2.58753496
Pu 1.45313092 -2.00291173 -10.58186884
O -4.27794806 6.86027640 -3.92344184
O -8.19161668 -3.31507528 4.86846899
Pu -1.49731664 3.39025058 8.77894121
O -4.21556675 -7.59695152 -0.13308079
O -2.09003827 -1.71665975 -8.06681744
Pu -2.42883189 4.87358992 -1.09776259
O -1.27680775 8.36735441 2.72086064
O 4.15108047 3.50833513 -4.13028275
Pu -3.45343634 1.91892729 6.02418689
O -4.09610657 -3.61636745 -1.64295722
O -0.66320847 -0.29223937 -3.43134906
Pu -1.19140062 -6.79389913 2.28718436
O -1.87256097 -4.16309805 4.43390576
O -7.35185928 -0.20488248 5.51557959
Pu -0.17623463 2.14610653 5.64465203
O 0.21209720 -4.12851287 5.24270628
O 4.90922397 -7.54849886 2.73395077
Pu 3.33886640 -1.36944921 -4.07928843
O -6.67346617 2.98964058 5.13070681
O -5.26996449 -1.30330543 -0.66728678
Pu 6.86166909 -0.03826482 7.07165064
O -3.78874598 5.74059214 1.94492822
O 4.40267249 -5.63340336 -3.41391224
Pu -7.02636037 1.29035670 3.92516651
O 0.83319307 1.40622475 4.05435501
O 5.87943105 -0.61621145 -7.49542496
Pu -8.18930076 -1.85334034 6.23387821
O -8.83573528 4.32414189 -1.26632608
O 8.42790866 -3.47824429 1.00187953
Pu 2.74260172 -5.53474212 -1.86663139
O 10.73223317 -2.60319588 2.43358681
O 6.64016888 -2.67766327 -5.22852730
Pu -1.41573196 7.97254289 -5.26760813
O 7.13181651 -2.58273071 -1.95555655
O -9.62857265 2.43927873 -3.29123342
Pu -3.86283780 6.83578755 3.77583334
O -1.57188581 7.07969852 5.81224395
O -0.52463574 -3.25253368 -9.34110652
Pu -5.60925920 -1.40515936 -5.26674887
O 3.42812999 -0.49602908 -5.83515069
O -3.47479332 -0.04954324 6.82060859
Pu -2.66016822 -8.93365054 0.33787652
O -3.92171677 6.01131491 -7.62338379
O -7.41701781 -3.15841484 -2.34268742
Pu -4.27796619 -7.87416742 -3.00403500
O 1.39275616 -4.31439507 -0.69820342
O -2.23873848 6.69371133 -0.08690069
Pu -5.62262700 3.69780513 1.82947849
O -0.27778112 -7.90819070 -2.79615607
O -5.81023958 6.61384647 4.48843791
Pu 7.84955471 -5.46695009 0.45133184
O 3.91436080 2.76014063 -6.23288473
O -3.16591901 9.52881104 7.06762568
Pu -0.44596780 1.67240250 -2.50267141
O -2.37344900 -3.11605354 2.38237654
O 3.20736308 -0.99369782 5.92242439
Pu 5.03274758 8.43548978 5.00525110
O -7.26717778 4.18040307 3.10914568
O -3.68949012 8.57026113 -0.74331358
Pu -2.83003094 4.06803943 2.94005433
O 1.61859295 -7.05699006 2.63827730
O -7.62201788 -1.30852976 0.55588419
Pu -6.95759921 1.56452588 -5.66011017
O 7.07222533 3.84217732 -4.19494609
O -5.56329256 -9.10867151 1.28103974
Pu -7.20936930 -4.78607423 1.28220025
O -2.56741368 0.95192043 -8.78910231
O 7.24967229 -5.50541410 -3.92608409
Pu -1.27884034 -9.65768179 -3.03894720
O 2.60139134 5.10653674 5.85759419
O -0.12055778 0.50307163 -7.66675403
Pu 0.61685974 -8.14275674 -0.88581425
O 3.52389086 -3.75113353 -1.83628215
O 5.98750848 -5.11404076 4.95176662
Pu 0.67450920 5.30879751 -2.52168540
O 8.66093064 -5.66427984 2.27912740
O -0.39022371 1.07865999 0.55014876
Pu -2.73957682 10.22824782 5.19021607
O -1.81649336 -8.26656273 -7.23974052
O -2.74060456 -2.50285482 -3.05572355
Pu 5.95374039 7.08548952 -0.51169015
O 3.26235966 0.68308127 -7.80665367
O -3.21954359 8.22445265 -6.43298262
Pu -0.63764233 -0.98569539 0.25375519
O -2.62688502 -8.43175019 2.21961152
O -0.32363241 -7.19343056 4.35904000
Pu 5.71037780 4.29433384 -5.75044763
O -0.81029497 3.57004582 -1.47091904
O -4.90814534 4.72477517 3.44459505
Pu -0.68638123 -4.49569171 -0.57022577
O 6.53307871 2.41714943 -6.24611141
O -1.95247559 6.16243858 3.46812705
Pu 4.75806112 -1.22053625 4.57996490
O -3.88455615 -2.73972638 -5.20110489
O -7.12653759 3.50763181 0.33398454
Pu -4.60341330 6.82216961 -5.85037048
O 3.55429174 3.22139717 6.76213815
O 0.89277854 7.10987723 5.89549794
Pu -6.96219824 -5.05791920 4.72300404
O 4.62099496 -8.01692936 -3.62045299
O -7.32777979 -1.24787322 -3.97230818
Pu 1.37768762 -1.51745963 7.20970091
O -5.11387583 4.87565447 -5.76883154
O 1.50140122 -5.80295273 -3.64599193
Pu -1.69086220 4.48523312 -4.71090720
O -8.10004298 -6.86617952 -0.49899631
O 2.65263878 4.87551316 -2.77770170
Pu -6.38535009 2.21306408 -1.43898241
O 7.78923326 7.01373846 -1.12974726
O -2.90246898 -4.59656931 6.77258342
Pu -4.66133816 -7.58072519 2.74219047
O -1.20486877 -8.93112421 -0.96197188
O -0.39070411 -3.32206261 7.56766703
Pu 10.00150331 -1.32246595 1.20760971
O 5.48619672 0.44137263 5.38594621
O -3.39088330 -9.43984579 -1.85303152
Pu 2.83625974 -4.50396515 -7.09675725
O -5.12606875 2.77136528 -3.12372031
O 5.41207119 -8.42890259 -1.45110987
Pu -4.40680378 -4.22621886 -3.61206663
O 1.69547184 -3.71632258 -8.61324552
O 8.34822341 -3.45871458 4.71168807
Pu 4.53228161 4.19467938 5.16621460
O 0.58370842 3.88525308 -4.11939189
O 3.18567549 -5.84232407 4.61732802
Pu -3.69867480 -4.40447337 3.50136682
O 7.06117302 2.29876242 0.77279975
O 3.32940302 -9.22281885 0.14076881
Pu -0.10766112 -2.80673115 -7.46556147
O -0.78760967 9.80987329 5.03195276
O -5.98444054 5.58740333 1.14901723
Pu 7.47207056 1.10941645 -0.87959502
O -0.31591518 -4.19735339 9.99195799
O 8.29062319 -0.60013588 -0.17143604
Pu 1.10402870 -4.96069352 8.43957040
O -3.64374039 -5.46694267 -7.71226347
O -3.61511550 -2.30719109 5.59672127
Pu -0.96524752 0.85633532 3.08188974
O -1.80582042 2.25267922 -3.92379639
O 2.34453905 -3.26368376 7.48923036
Pu 9.21818420 -3.92194877 2.95616753
O -0.92321289 4.15840115 4.10525713
O 4.79868234 6.46671857 5.59543257
Pu -3.23109257 -3.75718737 -6.88450240
O 1.86005575 4.62945353 -6.54283010
O 1.23665710 -9.71384609 -2.17542578
Pu -1.10161518 -0.32505717 -9.55749187
O -1.26911075 -6.43877295 -5.59091036
O 8.72732172 2.82744160 -0.55204518
