420
ML-kMC step 2000
Pu 1.55890235 5.66830115 4.28135178
O 2.54894401 0.55354733 7.73200019
O 4.85250202 -2.84056966 -3.84373980
Pu 2.77241651 3.04972030 -5.37124269
O -5.46364159 7.94291740 2.00887835
O 10.03965506 -2.56387346 -3.31412291
Pu -7.90860933 6.01046813 -0.28579624
O 2.96459112 -11.69434266 -1.76637214
O -6.97993797 -3.42561676 -4.82673890
Pu -4.19420465 3.58460676 -7.56005115
O 1.16933845 -6.75271940 6.39961523
O 4.76666824 7.35170723 8.24348693
Pu 5.60333584 -5.69365566 3.87712763
O 1.89718084 2.11865023 1.20007281
O 5.72858725 6.41248115 -5.01268608
Pu -1.38560009 5.45450924 6.16581135
O -6.07050521 0.70434879 -5.05073528
O -4.23215761 1.27601101 -1.44166622
Pu -5.37661050 5.22350032 -3.21760550
O 7.96745058 2.58157693 -2.60181265
O 3.99840301 -0.84496892 3.15253550
Pu 1.56568291 3.89443689 8.08547513
O -4.52268598 1.40689700 -8.15717332
O -6.09627542 7.44217517 -0.90945097
Pu 0.42820026 -5.66420005 -10.32984582
O 1.85754209 7.40727578 -2.62881827
O -5.51936023 2.66409780 7.80122060
Pu 5.86320707 -3.26644635 -1.09979082
O -1.43979885 2.89376563 1.92573766
O -0.52771428 3.47911718 7.90233525
Pu -0.59861682 7.05347571 1.43539827
O 4.72680423 -5.55057733 1.83349870
O 0.87025653 4.29533502 5.97048904
Pu -3.61731497 -0.56411839 -8.22633976
O 1.09540488 -6.47024802 -6.18135662
O 0.64219646 8.81825506 -5.14378213
Pu 0.05919203 2.90760705 0.41490536
O -2.41472546 4.08373148 -8.99658130
O 4.82387798 -3.40098033 3.86713960
Pu 0.02594776 4.00677107 -9.37358876
O -6.68464419 5.07519237 7.56132254
O 0.57495344 -1.58769636 -9.25996251
Pu -3.36488548 -7.63391042 -6.59297330
O -4.64417323 -6.08383622 -6.66727859
O -5.79460513 -5.68764898 4.30995344
Pu -0.81898147 -6.22016004 5.98836962
O 6.16422124 2.61513690 6.55282208
O 1.05029504 -11.57523284 0.89996899
Pu -2.58260476 8.09711378 7.46383744
O -2.27104913 2.26662963 4.70866513
O -9.48355875 5.98200938 0.80958642
Pu 5.66308023 0.76860185 -7.64893360
O 3.46744146 -6.59490787 7.99373081
O 0.42262139 7.48077123 3.52312136
Pu 4.48324144 0.82697697 7.90064248
O -4.35283178 -5.97464294 -3.54806219
O -9.36593757 -5.11848301 0.48325043
Pu 7.42324814 -2.93209764 2.02287745
O 1.46243308 3.85563729 3.25509537
O -0.91645839 7.41401271 -2.01935074
Pu 0.11412744 9.27156922 -2.63558818
O 4.78197713 9.13898083 1.34111161
O -5.91913621 -6.54881568 1.36441347
Pu -1.62297608 7.34752146 -8.86712828
O 4.10971008 6.85875089 0.06123822
O 4.32942024 2.07245984 -9.54603292
Pu 2.29161854 -8.15500861 4.83571308
O -4.62976311 2.32517814 2.69370260
O 1.56015220 9.79154478 -0.74666262
Pu 2.94784239 -5.11794268 6.83969787
O 2.86401994 -1.38129869 -10.22554811
O 0.80014526 -7.31119828 -9.00635363
Pu -9.05356166 5.03045543 5.04809465
O 9.53349414 0.73134601 1.77510973
O 5.02423813 -3.25264833 -8.47806003
Pu -0.62712982 -6.44092230 -4.08677502
O -8.18155036 6.82222993 4.76002950
O -7.18433558 5.09469376 -4.17080408
Pu 5.01110694 6.08229441 1.96095386
O 3.92501991 4.46950893 1.40169517
O -8.28690981 2.97362941 -5.42033094
Pu 12.12844504 2.81021929 -1.42854907
O 6.90398177 4.69592659 6.52525778
O -2.08433833 6.15765348 8.05389826
Pu 3.73301150 0.93296591 -0.87575764
O 0.35862627 -1.59549282 -5.08136841
O -5.64527494 -3.31774914 5.97159917
Pu -1.07753507 0.89333331 -5.79718825
O 4.05000364 5.36351800 3.74001748
O 3.33020682 8.00939260 -5.09862202
Pu -10.66989029 2.09718161 6.30444211
O -9.79720988 3.87202256 6.57635219
O 13.09269918 4.01589767 -2.59394812
Pu -9.80391035 4.19631644 1.45399840
O 5.54268636 5.88175640 -1.79898921
O -3.53614020 4.32228562 5.44178600
Pu -9.22318321 0.49913919 0.73006197
O -10.13931835 4.45965013 3.34912704
O 1.20874909 -8.94296471 -5.86197473
Pu -9.51374620 -5.77645614 -1.42544961
O -2.24245503 -0.44796815 -0.18251854
O 2.40851193 4.89897460 -9.69600960
Pu -1.56140421 -3.10432225 7.05399555
O 4.49216923 1.90181193 1.75503461
O -3.50788997 6.57450043 6.25167032
Pu -4.53911515 7.48758941 0.33195455
O -3.57452070 0.58066782 -5.63387563
O 6.77986688 4.74042551 3.27212388
Pu -0.85965248 8.94385326 4.41867190
O 0.66185707 4.51937710 9.70923552
O 8.20805149 2.62456374 2.63062271
Pu -5.88006985 -1.21205456 5.65413551
O 0.17129380 0.26693231 -10.61972563
O 4.92321215 3.27342514 -1.19700184
Pu 7.02842594 -0.99314210 -3.89584173
O 6.97250800 -5.58837967 -1.34681206
O -2.14121893 6.04507988 -5.96136205
Pu 2.08386414 -10.11577994 1.79972586
O 6.33651094 5.39808432 0.74572409
O 11.46768467 0.81846760 -2.04982445
Pu 9.57709846 3.58797225 1.09163926
O 7.76256767 -4.82284837 2.78248462
O -1.11524841 1.40447716 7.64354196
Pu -3.31113171 -1.59430691 -1.89709708
O -0.37936021 7.74243960 -7.33884649
O -0.21982353 -1.72537827 -12.07594068
Pu 1.69947285 7.25628031 -6.33736966
O -9.94189211 -4.75866574 -3.15161949
O -0.49611083 -12.14293378 -2.60253959
Pu 2.37116242 -2.66765068 -1.47928429
O -7.33687509 0.32197464 -0.96720354
O -4.67180672 -4.38883556 9.71852756
Pu 3.19962311 -9.56901754 -2.28197547
O 6.51163702 -4.52345591 -6.43152346
O -0.12216609 -4.81810980 -2.40933171
Pu 2.97718897 8.78536111 0.11802377
O 8.87142949 0.32905962 -3.57588748
O 3.85445767 -6.18317480 -6.58817141
Pu 2.62253518 -7.63753743 -5.23217759
O -4.35820485 4.16640856 -5.32081591
O -9.68378112 -0.36074922 -1.37841032
Pu -3.22999294 7.83702685 -2.59283830
O -1.12224336 -5.05070825 2.15201418
O 5.12804258 5.27084837 -7.98737543
Pu 5.22879667 -8.33729244 0.31396941
O 1.16175347 1.94186614 -4.72612910
O -3.53259775 3.62905662 0.26176857
Pu -4.20986091 1.05961521 -3.88694660
O 1.53606769 -4.48933740 -11.66313042
O -5.94607927 -7.44165710 -1.74879775
Pu 7.69644950 -3.25077004 6.10099060
O -4.53919500 -1.83531600 -7.15147300
O 6.59545746 -1.73862605 6.79624577
Pu 6.50379983 6.74778569 7.50165898
O -0.86985387 5.06349213 1.07055208
O -8.76487128 1.94183173 7.77296857
Pu 8.18800652 4.21268940 8.09359184
O -2.76106799 -8.88484357 -2.97242301
O -2.45207851 -2.30559874 9.33183547
Pu 6.06342443 4.08723604 -2.79089891
O -10.03705310 2.26408750 0.78598822
O -1.19820084 -4.13413186 -6.56377994
Pu -0.52549873 -3.20664692 3.31846971
O 7.08576047 -0.94000272 4.48156090
O -4.18210788 5.93033627 -1.56602658
Pu 2.67593345 -2.21599920 2.61941995
O 3.82685862 8.74503397 5.74301575
O 5.27486742 0.36748538 -2.74251848
Pu 2.79877572 2.47379246 2.98424830
O 2.49702662 -3.10467525 -7.12897811
O 8.59772391 3.18469798 9.67636297
Pu 1.00371878 -11.77910623 -1.04994962
O -7.55972497 1.82683256 2.27508608
O 0.24367349 -8.70478397 1.17400744
Pu -6.87086426 -8.30438276 -0.01743906
O -7.50460224 -0.71622572 -6.41740144
O 2.84667237 -3.75001244 1.24222165
Pu 6.91787371 -2.91801431 -7.76627288
O -4.47955277 -9.24977115 -4.91615242
O -1.12021656 -3.08387532 -1.35049551
Pu 5.96808928 -6.99071507 -2.91276084
O 7.38011520 -7.52345121 0.32544899
O -8.19470850 -5.04676090 3.35169394
Pu 3.34205229 4.68213005 -0.63453358
O -10.21970039 -1.88827866 -3.94277721
O -5.94125824 -3.68378508 1.70339939
Pu -0.10854189 -7.68423525 -7.19591094
O 6.24652173 -2.00212728 0.67646109
O -5.64210773 1.01496704 5.06507692
Pu -5.31487694 -4.00146474 7.79345686
O -2.50763416 -6.23347622 0.11557180
O 1.67022861 2.55726849 -9.25619584
Pu 6.24694658 3.17033490 1.68471663
O -6.78926646 -1.86926226 7.43181204
O 4.78540370 7.46065311 3.29203969
Pu -3.50420866 1.52807414 0.44638250
O 1.31260886 5.04081157 -0.84330325
O 0.51590935 -3.52065587 1.01104796
Pu 8.57788746 0.48123389 3.61849693
O 5.15226310 2.72316290 4.14010267
O 0.09005742 6.68901996 -4.96986105
Pu -4.39775475 -5.77910792 -0.14171607
O 1.47795565 -3.68358340 3.51320596
O -6.63902880 4.52443862 -1.75168085
Pu -1.90530833 -0.30216136 8.76603149
O -5.86236130 -1.31695707 3.57106862
O 8.88598451 0.15544275 5.56191770
Pu 2.32732299 -0.94018085 -7.14449051
O 6.75748520 0.38441367 -5.79140862
O 2.51636956 -9.95164482 3.66766652
Pu 8.14706172 2.15536304 -4.86761282
O -3.86885844 -6.32393936 2.23295934
O -0.32926024 5.94159597 -9.28106744
Pu 3.22951585 7.30299635 7.05012038
O 6.24920382 0.98941711 8.70630555
O -1.55792687 -1.05790147 1.71666665
Pu 9.00942319 -4.21135105 -2.97758463
O -2.50144517 5.66125776 -3.01872639
O -2.24770012 0.39385547 -2.59644434
Pu -5.34244836 5.07369801 6.18342813
O -6.22797372 -5.52320106 7.02836694
O 1.37245898 7.45875805 1.16926079
Pu 5.68477822 -4.38180050 -4.63201788
O -0.52739030 -1.76644091 6.12763004
O -0.04399417 -0.92361370 8.74589169
Pu 4.18013785 7.14729943 -3.42932151
O -2.75081234 2.93560894 7.62726507
O -7.65762408 -6.13706530 -0.81732889
Pu 2.22440445 0.71293879 -9.99649694
O 1.89063817 -1.46328824 0.35148418
O -7.23262838 1.30289510 -3.12828312
Pu -0.50231536 -2.70176092 -3.79140304
O 6.69699236 8.16451745 6.00920412
O 9.52436061 4.49490740 3.07313734
Pu 8.12260595 4.76635305 4.63389383
O 11.98196737 -1.46542575 -0.40028791
O -2.75531651 1.51539049 10.22145205
Pu 2.55302776 -5.97202047 1.74108829
O -0.18125088 -6.48760839 -0.81345685
O -10.13303757 0.02665075 6.14829536
Pu -7.64423925 3.51040070 8.07830589
O 8.34241125 6.18414584 7.74983135
O 2.09275725 1.19192052 -2.32430832
Pu 11.13846632 -1.05732153 -2.08557245
O 1.27279524 -2.51774564 -3.10856385
O -4.11526597 -0.62972891 1.66591866
Pu -7.61463819 -1.54460291 -1.52734814
O -4.98272869 -1.52731615 -3.80961976
O -2.30493584 2.90276042 -6.71735482
Pu -5.92513211 -1.32602869 1.40018137
O 4.46008699 -6.14932066 -1.67320506
O 8.88745249 3.78993105 6.15946098
Pu -9.66185407 0.10419539 -3.22222160
O 9.90235308 -5.08641936 -1.19411158
O 3.57624754 -1.15870739 -1.41566997
Pu -7.08329219 7.22813439 3.12245647
O -1.72864105 9.13593481 -3.35397567
O 2.05264083 -7.68997531 -2.38399715
Pu -2.76192599 -4.04306754 10.16435896
O -3.50225752 9.08901671 4.13086628
O 4.65334190 8.34741376 -1.69277026
Pu -8.97971792 -3.35343338 -4.12323872
O 11.48987958 2.55563008 0.57658728
O -9.43342529 2.02479384 4.69585422
Pu 3.96444726 3.97940233 -8.86333288
O -0.97692291 -5.37927025 7.88624156
O -4.15783642 -7.03713475 4.31186606
Pu -8.61865823 4.01926793 -3.54061450
O 3.15022658 -7.36700171 0.14414274
O 9.18271872 -2.25899794 2.58639407
Pu 1.35274451 -2.62541597 -11.20698410
O -4.01676990 7.40650167 -4.39394733
O -8.65702839 -3.35837723 5.87222305
Pu -1.74160328 3.24898606 9.56816825
O -4.52365718 -8.44404019 0.49568253
O -2.16821984 -2.39134384 -8.90841057
Pu -2.38612840 4.94988663 -0.96630805
O -1.83109732 10.50220731 3.75866622
O 4.56212073 3.95319853 -4.31461292
Pu -4.01218792 1.82477552 6.54221401
O -4.66938106 -3.80059022 -1.49762833
O -1.28354303 -0.92342813 -3.87399810
Pu -1.74645882 -7.26209622 2.44556212
O -1.60004856 -4.55191826 5.04313665
O -7.69752773 -0.56626815 5.74626494
Pu -0.38413156 2.35417975 5.91020946
O 1.09198003 -3.60611792 6.32584698
O 5.21136192 -7.78459015 2.33131985
Pu 3.09580625 -1.08227248 -3.76946232
O -7.41060654 3.56176677 5.50604467
O -5.43357592 -1.61172392 -0.52220058
Pu 7.23992531 0.69774773 6.76252951
O -4.22614611 5.87997916 1.72663260
O 5.00996578 -6.29570452 -4.41574511
Pu -7.45107605 1.64484132 4.71243996
O 1.35525075 1.43705146 4.48559622
O 6.46208381 -0.91827435 -8.34909911
Pu -8.94541916 -1.65835800 6.67805970
O -9.67461508 5.13452162 -2.27424870
O 8.45146845 -3.79846108 0.55275057
Pu 2.51990932 -5.88959520 -1.84050184
O 11.46920063 -3.25116389 2.15804331
O 7.13662174 -2.39610683 -5.51550347
Pu -1.44709137 8.06522918 -5.36592691
O 7.24212309 -2.59127668 -2.46568749
O -9.77111312 2.10521643 -2.68443162
Pu -4.01194043 7.06919751 4.11591219
O -1.03284914 8.17232066 6.27831614
O -0.35170848 -3.44571408 -10.26794336
Pu -5.78905820 -1.43486326 -5.72263248
O 3.47108880 -0.25887097 -5.45887456
O -3.33395243 -0.21053281 7.25642571
Pu -3.40519450 -10.06698204 0.12352235
O -3.43921686 7.00295071 -8.40243361
O -8.34023928 -3.28698888 -2.24863854
Pu -4.71247164 -8.57006188 -2.96188890
O 1.64137371 -4.38268587 -1.03336464
O -2.18286598 7.28436425 0.20992488
Pu -6.45138863 4.05487495 2.60322321
O -0.36032039 -8.30303802 -3.03874221
O -5.75471204 6.88563904 4.93595540
Pu 8.66704349 -6.14060529 0.65394074
O 4.41136086 2.63016619 -6.97005786
O -3.50702835 9.65389409 6.67758948
Pu -0.24990420 0.98355685 -2.52597792
O -2.89246988 -2.83010373 3.18303557
O 3.38409564 -1.25410802 6.11711333
Pu 5.40213420 8.68355897 4.66889439
O -7.92250142 5.07740005 3.23644980
O -4.11395739 8.89968589 -1.20978573
Pu -2.57537602 4.15028240 2.99740149
O 1.91643140 -7.74787494 2.26531934
O -8.14025291 -1.05152152 1.08429369
Pu -7.72067658 1.15838122 -5.93279592
O 6.98879363 3.77469677 -4.90255863
O -6.33402314 -9.28983411 2.12592247
Pu -7.49371896 -5.10301357 1.29504276
O -2.56916298 0.00125834 -9.74766279
O 7.52733549 -5.50771166 -3.98554738
Pu -1.05636849 -10.33614765 -3.16404600
O 2.51861187 5.62900485 7.85197301
O 0.47847810 -0.14958682 -6.85514984
Pu 0.41640159 -8.32766017 -0.92569945
O 4.10086164 -3.50086291 -1.87290122
O 6.69341760 -4.91257600 5.60560794
Pu 0.71333723 5.74879505 -2.83836121
O 9.61087404 -6.16818535 2.42433238
O 0.73046056 1.42919038 -0.77819712
Pu -3.03489903 10.89455678 5.24624353
O -1.80330800 -8.59202399 -7.51956300
O -2.76905414 -3.02485979 -3.02937217
Pu 6.21962508 7.71515357 -0.39964642
O 3.77031930 0.41523382 -8.20563968
O -3.01092176 8.70776869 -6.59968463
Pu -0.20986135 -1.57687912 0.04044658
O -2.90086517 -9.25059795 2.18866767
O -0.90262668 -7.40711801 4.20673800
Pu 5.79599647 4.76259540 -6.16661616
O -1.16408801 3.40615492 -1.16183162
O -5.15434724 4.90039884 4.02229250
Pu -0.68262149 -4.70872479 -0.09283419
O 7.02786278 2.40546310 -6.83193325
O -2.27804776 6.36953872 3.61490776
Pu 5.09758825 -1.11292204 4.73420469
O -4.41850487 -3.28783763 -5.52727968
O -8.02638704 3.75201021 0.05955845
Pu -4.36416558 7.27822217 -6.44210880
O 3.62884075 2.94127593 7.51392464
O 1.44418739 6.67319103 6.05991574
Pu -7.39082340 -4.84912889 5.10604729
O 4.14003725 -8.74125458 -3.79532354
O -7.97514927 -1.06783038 -3.88764536
Pu 1.51262048 -1.31535999 7.38495336
O -5.39147167 5.56877975 -6.97754409
O 1.35822880 -6.28091352 -3.86408220
Pu -1.75085766 4.44812773 -4.96227659
O -8.84184816 -8.19478187 -0.71585248
O 2.88445602 5.09778671 -2.73848682
Pu -6.58982991 2.30976109 -1.59671540
O 7.63755926 7.72853040 -1.70683274
O -3.28885558 -4.12974382 7.81851218
Pu -4.95523602 -8.07394378 2.82899360
O -1.83890555 -10.15926225 -0.98505631
O -0.30608624 -3.10870203 8.62357184
Pu 10.74111654 -1.53276167 1.29511307
O 5.33366972 0.31760001 6.11946039
O -5.26172594 -9.67938689 -1.35744094
Pu 3.74273524 -4.61307594 -7.81015435
O -4.88689682 3.28804199 -3.24794622
O 4.99577656 -9.20044331 -1.42453154
Pu -5.11031335 -3.77442000 -3.69941712
O 1.57933239 -4.22913709 -8.97668116
O 8.99733008 -3.40336837 4.63301133
Pu 4.80572442 3.98838535 5.68224389
O 0.32285294 4.49815323 -4.29925115
O 3.48015825 -6.40077243 4.87688864
Pu -3.97138246 -5.09740435 3.79164490
O 7.18871420 2.32075055 -0.04223709
O 3.02595605 -9.75503567 0.04199373
Pu -0.01642639 -3.11447269 -8.14407715
O -1.18077460 10.51360546 5.73300662
O -6.84928318 5.62775550 1.46158040
Pu 8.45749472 1.23805168 -1.17189883
O -0.95851737 -4.53285369 10.90340894
O 9.66493411 -0.48229219 -0.39735251
Pu 0.43265292 -4.79524644 9.45471993
O -2.65633134 -5.68058622 -7.93989685
O -3.95282785 -1.38386061 5.41334544
Pu -3.18588972 -0.87859472 3.62728403
O -1.23436460 2.44918803 -4.16904878
O 2.01626990 -4.05167385 8.52319788
Pu 9.97989924 -4.33214438 3.06784716
O -0.38974472 4.93924586 4.15240177
O 5.14955758 6.23997655 5.96938434
Pu -3.69915361 -4.40727644 -6.96125927
O 3.17204679 5.05373435 -6.40629832
O 0.68882460 -10.01687147 -2.03052251
Pu -1.26699935 -1.11246709 -10.58612203
O -1.74090556 -7.39239909 -5.49621763
O 9.91816429 3.13114395 -1.04839794
