420
ML-kMC step 5000
Pu 1.44280121 5.53712990 4.10067477
O 2.16639355 0.37660933 7.59729672
O 4.88665849 -2.80846746 -3.88145717
Pu 2.71377387 3.12530873 -5.18252263
O -5.32395808 8.22175197 2.05974428
O 9.54568441 -2.48887140 -3.06194626
Pu -7.69965489 5.79110581 -0.57497818
O 3.08003248 -11.51139648 -1.75172731
O -6.75401870 -3.48264161 -4.58391155
Pu -4.09176820 3.40433782 -7.47163683
O 0.84569372 -6.93602578 6.15901527
O 4.80815051 7.00779812 8.14066035
Pu 5.53613416 -5.56152980 3.63793915
O 2.04257286 2.20990528 1.11682571
O 5.47305306 6.24213494 -4.60887718
Pu -1.53328725 5.39488723 5.96151649
O -5.96336418 0.67790441 -5.02152421
O -4.27953812 1.27294822 -1.46497372
Pu -5.25952168 5.21392758 -3.23710933
O 7.46732330 2.60577957 -2.68523350
O 3.70545717 -1.01073711 3.12137297
Pu 1.59238914 3.89420401 8.07599334
O -4.46705475 1.35018513 -8.15179486
O -5.97430646 7.08373741 -0.81525210
Pu 0.46050231 -5.43055720 -9.94916879
O 1.89193579 7.38780730 -2.60044121
O -5.47472067 2.37958451 7.45814320
Pu 5.78512781 -3.37878248 -0.98756796
O -1.25899334 2.94545228 1.98350217
O -0.59219026 3.38409328 7.67759718
Pu -0.46345826 7.15289842 1.56248685
O 4.68438616 -5.61727747 1.78235196
O 0.92514767 3.89903221 5.97139912
Pu -3.35931683 -0.37706277 -7.93155312
O 1.06444708 -6.27259924 -6.06335507
O 0.55109332 8.75971737 -5.05907323
Pu 0.17698207 3.14693267 0.41970802
O -2.09191275 3.68442425 -8.90871912
O 4.62556189 -3.34086548 4.05647467
Pu -0.03058388 3.39018058 -9.14403768
O -6.53578798 5.10678923 7.56686705
O 0.77381912 -1.36050669 -9.10648293
Pu -3.44990139 -7.72239737 -6.23991978
O -4.60155459 -6.06773632 -6.60705369
O -5.80011942 -5.68478958 4.34574937
Pu -0.86259308 -6.09201250 5.96730034
O 6.17678693 2.60342663 6.43437601
O 0.99666980 -11.12110434 0.73987041
Pu -2.49292377 8.06501048 7.44826526
O -2.30212673 2.00191765 4.76426570
O -8.97783829 6.01631547 0.93740385
Pu 5.41689316 1.09176661 -7.17150914
O 3.52468585 -6.66447273 7.74202591
O 0.48229244 7.57255255 3.61074701
Pu 4.31748898 0.93238244 7.83167990
O -3.81379983 -5.53283673 -3.10146776
O -9.08580519 -4.68814708 0.47583015
Pu 7.37182150 -2.75401734 2.07297600
O 2.01873140 4.08700710 2.94964047
O -0.83760077 7.11221306 -2.16469756
Pu 0.16655044 8.94425623 -2.60791017
O 4.75085680 8.42868510 1.14935075
O -5.97980609 -6.55670473 1.26365425
Pu -1.57561110 7.06030841 -8.65324582
O 4.18940444 6.73704706 -0.01050129
O 4.15626513 2.22800364 -9.73906150
Pu 2.14405324 -7.80486514 4.81478675
O -4.45608655 2.56378240 2.48569125
O 1.50969428 9.36122281 -0.76358829
Pu 2.68947680 -5.15007990 6.83122377
O 2.89813006 -1.38189117 -9.98164627
O 0.56280962 -7.34515663 -8.89615429
Pu -8.94485868 4.98763573 4.94417147
O 9.72100667 0.76768721 1.74901780
O 4.88092835 -3.28339461 -8.27150380
Pu -0.81758461 -6.31122843 -3.76584600
O -8.65481796 6.86959742 4.70870667
O -6.96466763 5.06551691 -4.17066617
Pu 5.02438049 6.06007898 1.99504465
O 3.83142668 4.29572963 1.31249858
O -8.14724806 3.00792619 -5.28325154
Pu 11.54357273 2.68712548 -1.59566323
O 6.73970473 4.61067176 6.44342704
O -1.88683768 6.11241583 7.91403204
Pu 3.69036706 1.14396602 -0.82342867
O 0.41901131 -1.74799320 -5.24056923
O -5.54949826 -3.32318302 5.92511327
Pu -1.17324823 0.87843999 -5.81579556
O 4.07086037 5.30892579 3.87899007
O 2.94448388 7.67862843 -4.77227498
Pu -10.47710503 1.72201226 6.29285145
O -9.18211673 3.88500269 6.56114790
O 12.04280419 3.82201385 -3.06431869
Pu -9.48042085 4.01174620 1.54322266
O 5.26619510 5.84518028 -1.66413854
O -3.44147337 4.12591549 5.36849308
Pu -8.91231001 0.60859018 0.52634129
O -10.47943628 4.42892525 3.26076289
O 1.24673152 -8.66802858 -5.78742672
Pu -9.28651787 -6.06581666 -1.05422823
O -1.94830452 -0.63435208 -0.31070888
O 2.05096777 4.53698360 -8.95987398
Pu -1.52973017 -3.23234150 6.85800433
O 4.41476499 2.00077569 1.66165634
O -3.37400444 6.44624747 6.34697112
Pu -4.44106856 7.40614187 0.36192424
O -3.41742704 0.41880007 -5.43809896
O 6.37749791 5.00002481 3.16045931
Pu -0.86446365 8.81150558 4.38136131
O 0.22088639 4.36111497 9.48958857
O 7.83097419 2.74238211 2.60407039
Pu -5.81898232 -1.24578486 5.52188719
O 0.46732730 0.47583932 -10.24491483
O 4.82079300 3.24227603 -1.07208040
Pu 6.98892077 -1.01682637 -3.85089563
O 6.51625539 -5.13928723 -1.46810898
O -2.13274779 6.00064019 -5.97155298
Pu 2.13109721 -9.76699021 1.75713530
O 6.24846034 5.29063805 0.61351608
O 11.19239627 0.74063888 -2.29715605
Pu 9.25803927 3.56038283 0.93471869
O 7.57442450 -4.66747039 2.97742319
O -1.27093357 1.26916627 7.07321534
Pu -3.31272458 -1.62971856 -1.81026611
O -0.32091690 7.48617384 -7.06608850
O 0.07596127 -1.77851281 -12.11804249
Pu 1.48424598 6.67397276 -5.96133788
O -9.68804016 -5.02213596 -2.83600479
O -0.41768171 -11.83451210 -2.62212796
Pu 2.37914317 -2.67971608 -1.46791825
O -7.08257344 0.53054691 -1.06140591
O -4.56706431 -4.38656274 9.62768934
Pu 3.32641193 -9.62021080 -2.27319699
O 6.55655200 -4.30337942 -6.42562169
O -0.08773400 -4.96426652 -2.43466592
Pu 2.96583621 8.40656746 0.00581648
O 8.43015470 0.38367267 -3.34915557
O 3.66360896 -6.21642761 -6.60532335
Pu 2.47736777 -7.44213591 -4.99366352
O -4.26922878 4.42831605 -5.08988188
O -9.13481021 -0.34397410 -1.21613013
Pu -3.09163154 7.71272371 -2.53898028
O -0.76576601 -5.18862090 2.33786677
O 5.12272776 5.24722415 -7.82018942
Pu 4.87722649 -8.04516665 0.25217483
O 1.09112262 1.89134079 -4.75833200
O -3.48301928 3.34918007 0.16293465
Pu -4.34507718 1.23675897 -3.86200594
O 1.74735865 -4.48010458 -11.05531172
O -5.80985464 -7.40424883 -1.83485086
Pu 7.31812879 -3.17531904 6.17137841
O -4.51423926 -1.76096823 -7.21246570
O 6.36268041 -1.45819465 6.59962268
Pu 6.49452736 6.59018131 7.36788172
O -1.02695005 5.34560900 1.18176387
O -8.41178504 1.75740037 7.27114598
Pu 8.04749071 4.02239635 7.72417081
O -2.86372700 -8.99737923 -2.98913273
O -2.24824753 -2.08318075 9.27414833
Pu 5.97800633 4.06328774 -2.82404218
O -10.07359979 2.17379307 0.81661354
O -1.55709389 -3.96785980 -6.64671799
Pu -0.53005879 -3.30502295 3.20465584
O 7.08642031 -1.00129900 4.49245580
O -4.12341089 5.95934847 -1.57261402
Pu 2.48931023 -2.50599714 2.43929698
O 3.72071584 8.82148551 5.83283858
O 5.02097402 0.34883506 -2.92507155
Pu 2.90531179 2.29425130 3.04166630
O 2.48608019 -3.09232402 -7.11199304
O 8.10716989 2.81882272 9.29318058
Pu 1.11804772 -11.66155613 -1.14094423
O -7.44120634 2.03798319 2.26047466
O 0.41645244 -8.54309214 1.19728554
Pu -6.63331203 -8.13682846 0.00378585
O -7.46882415 -0.84103718 -6.61440484
O 2.91785139 -3.93840714 0.94427824
Pu 6.74568264 -2.68781053 -7.52355811
O -4.85402995 -8.70928561 -5.12574500
O -1.06463688 -3.06399663 -1.19894458
Pu 5.85644473 -6.99577220 -2.86646167
O 7.10441654 -7.10691781 0.11946689
O -7.78696608 -4.76245625 3.15167319
Pu 3.44403040 4.69878219 -0.64173761
O -10.11472286 -1.66588658 -3.98101084
O -5.80044129 -3.89928209 1.57796807
Pu -0.11119208 -7.71169358 -7.02912297
O 6.38010422 -1.93993118 0.60975877
O -5.62716703 1.01311701 5.04848521
Pu -5.10711161 -4.03042457 7.71126468
O -2.63690757 -6.55151317 -0.00522099
O 1.66794708 2.26655554 -9.01400661
Pu 6.06233339 3.34697891 1.69462675
O -6.81401462 -1.88856893 7.37418551
O 4.77786888 7.40217740 3.33047161
Pu -3.31006231 1.19244176 0.45626788
O 1.45113858 4.73513777 -0.93887600
O 0.26543428 -3.58694552 1.10690218
Pu 8.44419979 0.92417172 3.38832442
O 5.09242519 2.54665540 4.13419588
O -0.05814433 6.61527369 -4.72985525
Pu -4.43325285 -5.80239331 -0.03619299
O 1.43423836 -3.84127096 3.51231656
O -6.54704485 4.53627816 -1.73670988
Pu -1.82603524 -0.40443884 8.43739602
O -6.04368110 -1.35003243 3.48792852
O 8.71232032 0.59783506 5.41401591
Pu 2.33353981 -0.98744990 -7.12480345
O 6.58507954 0.51132672 -5.69358040
O 2.36454389 -9.61143521 3.79103448
Pu 7.98760630 2.10560119 -4.74367958
O -3.77075895 -6.25954993 2.17712743
O -0.35366741 5.40685188 -9.33520745
Pu 3.21932315 7.13022785 6.89194786
O 6.09944252 0.84777831 8.53997562
O -1.62066473 -1.13711826 1.78677484
Pu 8.72122739 -4.18923892 -2.76622461
O -2.51172455 5.71458770 -3.19804091
O -2.17134565 0.62020467 -2.35774252
Pu -5.13484017 4.97691073 6.04455101
O -6.34059360 -5.49577702 7.19582302
O 1.40084335 7.34733162 0.86724693
Pu 5.64340783 -4.39944053 -4.63041484
O -0.26199994 -2.08933963 5.89034679
O 0.07987468 -0.78168520 8.65987253
Pu 4.18186678 6.98183305 -3.31854016
O -2.99544031 3.48513667 7.45586999
O -7.21098251 -6.04294700 -0.69296924
Pu 2.44212320 0.63219257 -9.64193136
O 1.81188058 -1.49517643 0.13743435
O -7.30679442 1.37315866 -3.28100876
Pu -0.52835693 -2.66719003 -3.80306355
O 6.79895276 7.82395556 5.69788607
O 9.08728664 4.53007071 2.94213625
Pu 7.74585239 4.31839022 4.39298322
O 11.24150747 -1.49718838 -0.28514775
O -2.55895346 1.26709658 9.55806809
Pu 2.43154567 -5.89361071 1.77910192
O -0.30035784 -6.60929908 -0.63067910
O -10.16895201 -0.16344093 6.37315234
Pu -7.32253214 3.30912834 7.64580463
O 8.33435857 6.05251644 7.85045615
O 2.05248485 1.19509017 -2.47064740
Pu 10.42556914 -1.04226633 -2.08117531
O 1.57487043 -2.22878642 -3.24501783
O -4.12542316 -0.53452156 1.66299305
Pu -7.22885731 -1.53297660 -1.78925976
O -4.99860006 -1.58421359 -3.26500875
O -2.24193225 2.74164806 -6.78316422
Pu -6.00918670 -1.32321354 1.43933797
O 4.53592083 -5.97160311 -1.82471932
O 8.53653839 3.36697167 5.87763866
Pu -9.58247933 0.08654436 -3.05707905
O 9.63570220 -5.22790989 -0.99020398
O 3.59189205 -1.21662994 -1.36218586
Pu -7.17819118 6.98963331 2.90842225
O -1.59268551 8.93462460 -3.34008974
O 2.01258633 -7.79334804 -2.09973578
Pu -2.67829417 -3.84178435 10.00306942
O -3.23535838 8.68087123 4.23785730
O 4.44944108 8.35059854 -1.52401491
Pu -8.77606783 -3.40803343 -4.09794744
O 11.12402223 2.73616596 0.51833310
O -9.39658537 2.35555999 4.70228004
Pu 3.83505396 3.89636541 -8.57725338
O -1.08826646 -5.32504776 7.90531737
O -4.01637629 -7.01099158 4.30588735
Pu -8.54013206 4.05741336 -3.45564241
O 3.00067557 -7.26281437 0.20620888
O 9.06429663 -1.94318962 2.69491402
Pu 1.48170449 -2.52880799 -11.00576222
O -3.70025102 7.10325391 -4.34696089
O -8.74863228 -3.37167953 5.91166662
Pu -1.86272574 3.25314811 9.27975200
O -4.37917512 -7.94859793 0.57445891
O -1.99650705 -2.29561841 -8.72465240
Pu -2.34279691 4.94376429 -1.05647501
O -1.98284590 10.25953108 3.47528828
O 4.51273111 3.90575208 -4.43280063
Pu -3.89798266 1.73522896 6.44358594
O -4.76815757 -3.63657352 -1.70561045
O -1.17481382 -0.85926625 -4.10757173
Pu -1.64378918 -7.28147473 2.08944404
O -1.49324944 -4.48658851 5.13345548
O -7.59606242 -0.51585887 5.59799305
Pu -0.41600202 2.43836642 5.79741489
O 1.37128156 -3.92757626 5.98387340
O 5.39809320 -7.74948706 2.18780634
Pu 3.10808957 -1.10219705 -3.76990067
O -7.01141116 3.34110261 5.29251687
O -5.47093154 -1.27444999 -0.49099517
Pu 7.13595087 0.81467796 6.87694171
O -4.14511821 5.87020048 1.64624152
O 4.89798451 -6.20963575 -4.43101743
Pu -7.48320475 1.26980647 4.65406361
O 1.82850045 1.30384330 4.41707944
O 5.92393962 -0.75951577 -7.78611126
Pu -8.76075996 -1.61671292 6.71348757
O -9.01243964 5.04471026 -1.86588666
O 8.41177855 -3.71319843 0.65358317
Pu 2.47630573 -5.90761612 -1.93642958
O 10.96495205 -3.23935926 2.03762874
O 7.16672491 -2.42467821 -5.41649000
Pu -1.35150795 7.96235937 -5.26882161
O 7.24153004 -2.54034543 -2.55163718
O -9.39713191 2.16369080 -2.64549623
Pu -4.05474075 6.80505870 3.97132835
O -1.16567518 7.47527407 6.02857193
O -0.25759739 -3.32407923 -10.09869771
Pu -5.68453732 -1.56540925 -5.53080757
O 3.24603358 -0.24982680 -5.46946742
O -3.27035200 -0.26405194 7.14659659
Pu -3.35529341 -9.47564212 0.09469133
O -3.37962058 6.64891955 -8.18851925
O -8.01986024 -3.19271306 -2.29597446
Pu -4.81803432 -8.54243333 -3.05872916
O 1.59882144 -4.37612067 -1.10444988
O -2.14416636 7.25128967 0.24522381
Pu -6.53267452 3.89332895 2.53694447
O -0.38531049 -8.09546506 -2.83738905
O -5.84363750 6.77548858 4.67766235
Pu 8.40888406 -5.79783723 0.58749852
O 4.29198609 2.76671378 -6.56987274
O -3.65027341 9.38097393 6.52259372
Pu -0.23797694 0.91874889 -2.47862882
O -2.79626881 -3.31894216 3.03374504
O 3.30177875 -1.24327060 6.03324906
Pu 5.38928396 8.65863199 4.73431582
O -7.98790575 5.05736299 3.20784034
O -3.92313570 8.89873121 -1.19650713
Pu -2.70335791 4.16535213 2.93514136
O 1.83783102 -7.39832805 2.84279258
O -8.02256881 -1.09671993 0.97073001
Pu -7.76480517 1.13890195 -6.01418384
O 7.28122577 4.02403859 -4.83064460
O -6.35252944 -8.97661944 1.98701057
Pu -7.31341773 -5.05806910 1.33103976
O -2.22552079 0.18642105 -9.35066061
O 7.25371809 -5.29235739 -3.55641036
Pu -1.12507366 -10.01947561 -3.02676719
O 2.53469969 5.52523413 7.75071707
O 0.26202589 -0.03612142 -7.05171347
Pu 0.51417635 -8.36850893 -1.03741132
O 4.05534189 -3.58929147 -1.85694568
O 6.60340108 -4.93086742 5.60825284
Pu 0.86526424 5.73198113 -2.70977258
O 9.44509092 -6.21254862 2.16693938
O 0.57365161 1.40382285 -0.82076393
Pu -3.32672161 10.59460147 4.87935955
O -1.89496439 -8.34091424 -7.43231510
O -2.53838355 -3.04298478 -2.97740893
Pu 6.10552890 7.63684968 -0.36581653
O 3.69787248 0.56227326 -7.85531494
O -2.97668160 8.49341703 -6.26855501
Pu -0.33322217 -1.58543134 0.22434863
O -2.76913902 -8.95621894 2.16740229
O -0.86290701 -7.34784153 4.20143301
Pu 5.60064767 4.70455674 -6.02308258
O -1.16483629 3.40933049 -1.16227331
O -5.29645347 4.89938536 3.90179289
Pu -0.59170487 -4.73842030 -0.15091991
O 6.83605034 2.50341292 -6.44416429
O -2.21182958 6.31916979 3.84977798
Pu 4.94575071 -1.01468787 4.78489091
O -4.27108953 -3.13136486 -5.39446826
O -8.16531696 3.82337535 0.08621513
Pu -4.26774848 7.04747535 -6.21860742
O 3.49692594 2.96793608 7.50676986
O 1.45122561 6.62882760 6.00555834
Pu -7.36922363 -4.78232216 5.08814444
O 3.87915914 -8.33811764 -3.77375724
O -7.82442473 -0.99636135 -3.97426963
Pu 1.37110195 -1.52630923 7.10783303
O -5.14436160 5.37207845 -7.23242743
O 1.60883393 -6.29082327 -3.63766938
Pu -1.71439249 4.42386388 -4.98265100
O -8.41807331 -7.98419400 -0.83321757
O 2.91681276 5.18574025 -2.68352899
Pu -6.53570360 2.37439223 -1.50802610
O 7.54260806 7.45510214 -1.63761474
O -3.17713089 -3.92410186 7.52862787
Pu -4.97809357 -8.06169362 3.00572332
O -1.79817591 -9.99771058 -1.20461208
O -0.34437242 -3.37256735 8.42625404
Pu 10.42696519 -1.36119063 1.48987048
O 5.39630519 0.61012593 5.94656331
O -5.09024745 -9.53872966 -0.99903884
Pu 3.60180842 -4.58334663 -7.72561000
O -4.87180174 3.09343135 -3.40393922
O 5.07222855 -9.03752698 -1.40595404
Pu -4.95945630 -3.70673222 -3.67217027
O 1.55721662 -4.37807454 -8.65005779
O 8.72701884 -3.58176609 4.71385234
Pu 4.73351943 3.99726683 5.50326655
O 0.41311780 4.46126974 -4.31699374
O 3.40431530 -6.16785299 4.84778511
Pu -4.00057863 -5.13521588 3.72892184
O 7.24987230 2.28275310 0.04458260
O 2.96424876 -9.45629424 -0.06919279
Pu -0.12986608 -3.02371682 -7.89577266
O -0.91718910 10.33694355 5.52074470
O -6.70783924 5.57074759 1.40947112
Pu 8.13945256 1.16325354 -1.22618165
O -0.91910750 -4.58514629 10.59664961
O 8.90438012 -0.50135605 -0.40119579
Pu 0.58756818 -4.75571448 9.38839051
O -2.60585539 -5.29014792 -8.19945930
O -3.89525687 -1.44742785 5.22305349
Pu -3.15219574 -0.79394015 3.52435216
O -1.26588198 2.57257844 -4.16030411
O 2.27173411 -4.03160481 8.38427323
Pu 9.84679552 -4.24928030 3.22098179
O -0.37861708 4.72934425 4.30802731
O 4.86375551 5.90297907 6.01914574
Pu -3.71041324 -4.32916079 -6.92522336
O 3.01508167 5.07784988 -6.26312358
O 0.80700824 -9.86519765 -2.23054150
Pu -1.00156942 -1.15220754 -10.33189926
O -1.65797189 -7.45737110 -5.37813609
O 9.47765416 3.01218272 -1.19274303
