420
ML-kMC step 3000
Pu 1.56009492 5.64955228 4.33657065
O 2.14822217 0.44171125 7.66908809
O 4.80477210 -2.80256169 -3.79727508
Pu 2.77664360 3.16305181 -5.35154021
O -5.43455590 7.90074325 1.99824381
O 9.58602761 -2.46863838 -3.19027305
Pu -7.71555672 5.86854926 -0.46452405
O 2.74887790 -11.64269074 -1.75075953
O -6.95124555 -3.44486900 -4.79477174
Pu -4.09741073 3.57033924 -7.51019634
O 0.98339883 -7.14172868 6.21353891
O 4.75117174 7.36434538 8.14805076
Pu 5.51059507 -5.60489297 3.59213149
O 2.03460459 2.12493286 1.21924620
O 5.52210782 6.11823962 -4.91242824
Pu -1.51815462 5.50349292 6.05528120
O -6.08481635 0.69465427 -5.09321399
O -4.40931799 1.26742149 -1.64680379
Pu -5.30155639 5.14760290 -3.16745840
O 7.67521727 2.80558658 -2.76196963
O 3.80688097 -0.73976604 3.14323711
Pu 1.57180875 3.92698844 8.09353964
O -4.35160386 1.38038331 -8.21538251
O -6.04792514 7.13089014 -0.78889004
Pu 0.34399282 -5.58242603 -10.16209114
O 1.94615555 7.45294739 -2.60800358
O -5.53913858 2.51858715 7.61902294
Pu 5.86320707 -3.26644635 -1.09979082
O -1.43979885 2.89376563 1.92573766
O -0.55728497 3.40962020 7.73479059
Pu -0.43183372 7.15042122 1.51716691
O 4.76363987 -5.56649695 1.83778880
O 0.90691487 4.25498605 5.98769409
Pu -3.61731497 -0.56411839 -8.22633976
O 1.09074936 -6.47106534 -6.16954306
O 0.63979456 8.93338194 -5.21788343
Pu 0.22720004 2.99909702 0.39130922
O -2.29714974 4.12140510 -9.06450997
O 4.72573847 -3.37272684 3.99720578
Pu -0.00195661 3.72584662 -9.13744054
O -6.64733558 5.09266119 7.56179311
O 0.60449499 -1.57214070 -9.09274673
Pu -3.46492302 -7.80028677 -6.29913905
O -4.63409708 -6.15823778 -6.73622716
O -5.79387623 -5.68354576 4.34196433
Pu -0.86259308 -6.09201250 5.96730034
O 6.17678693 2.60342663 6.43437601
O 0.96262819 -11.55729895 0.99303539
Pu -2.54006569 8.06994737 7.48397665
O -2.17680591 1.96304212 4.63720031
O -9.28107438 6.00814665 0.86671048
Pu 5.48683686 0.87913947 -7.46748580
O 3.60677615 -6.65234642 7.87891345
O 0.33275720 7.43687105 3.61919290
Pu 4.42771057 0.85219208 7.84332804
O -4.11793225 -5.67588864 -3.30590970
O -9.26836385 -4.80976938 0.38190528
Pu 7.42696586 -2.86106467 2.06808343
O 1.72754690 3.95819279 3.10441835
O -0.81905558 7.22021065 -2.21129118
Pu 0.16658816 9.00650074 -2.64942297
O 4.66161987 8.64876022 1.29900499
O -5.94217088 -6.49937486 1.37363208
Pu -1.56651395 7.17326891 -8.66363761
O 4.23848779 6.82762300 0.02232664
O 4.30849422 2.07501083 -9.57020625
Pu 2.25113359 -8.03940175 4.75916206
O -4.64261573 2.27818556 2.66471602
O 1.65939456 9.66774367 -0.70655613
Pu 2.75390420 -5.13950067 6.70295944
O 2.86401994 -1.38129869 -10.22554811
O 0.79151467 -7.19890658 -8.90971078
Pu -8.93458608 5.05321894 4.91246857
O 9.58328578 0.75992582 1.76844291
O 4.82624699 -3.14977181 -8.24121885
Pu -0.66113284 -6.36898626 -3.95092877
O -8.05399139 6.78578207 4.77739889
O -7.12744578 5.05421012 -4.13761037
Pu 5.00040086 6.09831223 1.94634821
O 3.90879500 4.52982146 1.23314904
O -8.27231745 2.95215885 -5.43118549
Pu 11.87972013 2.81328039 -1.41349110
O 6.70152030 4.68688667 6.55033820
O -1.83642598 6.28447510 8.05018939
Pu 3.74004495 0.93488796 -0.86769117
O 0.37437792 -1.55339452 -5.03894085
O -5.59050846 -3.22810376 5.80767672
Pu -1.07753507 0.89333331 -5.79718825
O 4.02980535 5.37243692 3.74298253
O 3.00947434 7.48025571 -4.82706891
Pu -10.50154979 1.99378659 6.23908085
O -9.72146717 3.86503140 6.52259746
O 12.77152147 3.98867138 -2.61497412
Pu -9.53870010 4.08292955 1.41492805
O 5.56363484 5.90345452 -1.75506624
O -3.55838661 4.35177941 5.45107744
Pu -9.16245936 0.56011102 0.71015916
O -10.10005142 4.30585908 3.42579016
O 1.07302965 -8.75800447 -5.93097337
Pu -9.55767855 -5.79647365 -1.32531083
O -2.24642496 -0.44481656 -0.18332603
O 2.19873129 4.70390603 -9.48070987
Pu -1.52898609 -3.16922833 6.91978234
O 4.40231684 1.90326503 1.74774782
O -3.46409713 6.50588701 6.31126779
Pu -4.53911515 7.48758941 0.33195455
O -3.54060760 0.56726597 -5.89156991
O 6.64327955 4.75223196 3.29008465
Pu -0.77161495 8.82458016 4.35177013
O 0.67104272 4.54370919 9.66531954
O 7.76332146 2.67225223 2.54429179
Pu -5.81046907 -1.26304361 5.56333563
O 0.17008186 0.26002716 -10.50177367
O 4.84137501 3.24212029 -1.14779753
Pu 7.02842594 -0.99314210 -3.89584173
O 6.97250800 -5.58837967 -1.34681206
O -2.12426209 6.06650294 -5.92954730
Pu 2.10979120 -9.94315421 1.69279166
O 6.33651094 5.39808432 0.74572409
O 11.17040250 0.80952004 -2.40476317
Pu 9.36470179 3.56198400 1.09892642
O 7.77756396 -4.57417692 2.81470559
O -1.11423666 1.31322455 7.48395195
Pu -3.34553552 -1.57758119 -1.87353812
O -0.32277904 7.58769442 -7.16026481
O -0.02902623 -1.77968293 -11.99994804
Pu 1.63652271 7.23798814 -6.28917236
O -9.86895502 -4.72130676 -3.06877636
O -0.67275813 -11.84852524 -2.41014179
Pu 2.37859426 -2.67421108 -1.45680781
O -7.23873257 0.35066547 -1.02202457
O -4.57161762 -4.26192145 9.58584977
Pu 3.18399859 -9.48624811 -2.13470742
O 6.34602297 -4.25729767 -6.44538701
O -0.29866256 -4.81963648 -2.63191701
Pu 3.00780509 8.52373065 0.07725578
O 8.42350933 0.51437975 -3.43562198
O 3.69732961 -6.30044056 -6.66102376
Pu 2.52172003 -7.55336275 -5.09098857
O -4.31350139 4.16226989 -5.23638651
O -9.36190512 -0.31378933 -1.23772916
Pu -3.09589743 7.80426487 -2.58552415
O -0.96495831 -5.11142845 2.26074927
O 5.12031107 5.26480764 -7.98030066
Pu 5.04457353 -8.19207416 0.29896968
O 1.19739167 1.98007771 -4.75417009
O -3.42801816 3.49033509 0.30471629
Pu -4.36990399 1.16961969 -3.89181150
O 1.65351422 -4.65757399 -11.24000437
O -5.97362555 -7.44700277 -1.76035822
Pu 7.65494061 -3.15140494 6.00485739
O -4.54768036 -1.84777605 -7.16088248
O 6.53031106 -1.68657633 6.76764080
Pu 6.42076369 6.66730400 7.40972096
O -1.06906385 5.24578326 1.02426668
O -8.73623560 1.84082921 7.86376193
Pu 8.18895039 4.21051979 8.09586469
O -2.85792307 -8.97209894 -2.91329743
O -2.39253822 -2.19587647 9.19134180
Pu 6.00539235 4.07292172 -2.77497157
O -10.03705310 2.26408750 0.78598822
O -1.39627315 -3.97095738 -6.57031854
Pu -0.54503018 -3.28130858 3.25045145
O 7.08203306 -0.95272871 4.47108734
O -4.18104650 5.92954090 -1.56904380
Pu 2.51868593 -2.32600571 2.42811220
O 3.75038410 9.00708011 5.70224042
O 5.29007762 0.36640858 -2.74435180
Pu 2.86884613 2.41821092 3.04689786
O 2.49702662 -3.10467525 -7.12897811
O 8.56936516 3.16908166 9.64800774
Pu 1.00838475 -12.10183328 -1.11545246
O -7.55972497 1.82683256 2.27508608
O 0.35262319 -8.66804095 1.18368004
Pu -6.73267038 -8.30053835 -0.02983016
O -7.64223544 -0.85598653 -6.45595880
O 2.88360292 -3.93486703 0.92833714
Pu 6.83557459 -2.80451527 -7.61438522
O -4.55509744 -9.04780119 -4.88351969
O -1.12199551 -3.08933074 -1.31879712
Pu 5.96962237 -7.01183666 -2.90118389
O 7.45181087 -7.59330321 0.27703774
O -7.88095991 -4.88782016 3.25867961
Pu 3.44403040 4.69878219 -0.64173761
O -10.18311934 -1.78576521 -3.92791798
O -5.94644899 -3.70702824 1.69247632
Pu -0.07984210 -7.68699715 -7.19952400
O 6.40546273 -1.98245513 0.65666741
O -5.61707289 1.03123099 5.04585396
Pu -5.41581932 -3.96922067 7.85094172
O -2.61712575 -6.57979982 0.22028552
O 1.62537739 2.51692009 -9.15384645
Pu 6.09062885 3.23895830 1.65976211
O -6.78367449 -1.85941079 7.40554230
O 4.78540370 7.46065311 3.29203969
Pu -3.25734221 1.21865763 0.33703687
O 1.36476578 5.01725784 -0.82923873
O 0.29430414 -3.63012045 1.15596140
Pu 8.29801004 0.56780389 3.49048862
O 5.16754112 2.70510496 4.17731976
O 0.17229067 6.75406506 -4.90493532
Pu -4.39775475 -5.77910792 -0.14171607
O 1.44366397 -3.88838302 3.55157837
O -6.63944605 4.52451245 -1.75171676
Pu -1.85666702 -0.37712785 8.60792155
O -5.86769804 -1.30788343 3.58724808
O 8.73369716 0.21178219 5.52274363
Pu 2.32732299 -0.94018085 -7.14449051
O 6.58467303 0.31025116 -5.71007182
O 2.46114232 -9.80533087 3.78692650
Pu 8.14706172 2.15536304 -4.86761282
O -3.87404919 -6.34718252 2.22203627
O -0.25379848 5.75120021 -9.01330580
Pu 3.20754385 7.17049329 6.83002106
O 6.24920382 0.98941711 8.70630555
O -1.58341176 -1.09802744 1.68070045
Pu 8.71659615 -4.21839395 -2.85642852
O -2.55445333 5.79308752 -3.08994482
O -2.21741695 0.56623437 -2.51884193
Pu -5.29119653 5.04736442 6.15255446
O -6.25494250 -5.52597270 7.10044129
O 1.43295293 7.30968440 1.04622803
Pu 5.64359400 -4.39601750 -4.60468405
O -0.48529672 -1.83315494 6.00890677
O 0.05090184 -0.75028000 8.78395974
Pu 4.19669330 7.00466132 -3.33308973
O -2.71114028 3.03723660 7.42891684
O -7.65231156 -6.15307505 -0.80759067
Pu 2.39993044 0.74885809 -9.85224900
O 1.79011564 -1.49689952 0.14264112
O -7.20464642 1.33242025 -3.14953415
Pu -0.49489316 -2.70152627 -3.79605215
O 6.64636622 8.02680285 5.99772566
O 9.43368831 4.67125351 3.02486696
Pu 8.16581120 4.61697699 4.54020648
O 11.89537062 -1.52514676 -0.40317850
O -2.63514419 1.35637448 9.78435158
Pu 2.49962813 -5.96503402 1.72988145
O -0.29952798 -6.60664300 -0.61245480
O -10.09463902 0.04961046 6.15122199
Pu -7.65667451 3.43142180 8.01361932
O 8.28753129 6.21517206 7.86609198
O 2.09109212 1.19521586 -2.32392379
Pu 10.71517373 -1.02337134 -2.03076871
O 1.31183481 -2.46552368 -3.07286159
O -4.12928245 -0.60814776 1.67658052
Pu -7.60783252 -1.53165928 -1.52391112
O -4.87739239 -1.42794115 -3.57495110
O -2.27079569 2.93312791 -6.76996551
Pu -5.95257732 -1.27522435 1.42824658
O 4.53504908 -6.04484629 -1.85426426
O 9.12158385 3.77351313 5.97576594
Pu -9.72964178 0.13608294 -3.07090114
O 9.64646549 -4.95475937 -1.16296373
O 3.60124083 -1.21858269 -1.35579264
Pu -6.99251444 7.21437039 3.07828731
O -1.67029823 9.07106239 -3.39056125
O 2.05264083 -7.68997531 -2.38399715
Pu -2.59780629 -3.81390344 10.20698279
O -3.35787713 8.71154176 4.15802185
O 4.60875934 8.27728757 -1.67803675
Pu -8.87948883 -3.42057138 -4.06474933
O 11.15873031 2.66007997 0.52581652
O -9.32466723 2.03609476 4.73289681
Pu 3.87576325 3.89722801 -8.60698092
O -0.97107336 -5.51882539 7.89001944
O -4.15783642 -7.03713475 4.31186606
Pu -8.59099643 4.00395702 -3.51755295
O 3.10969022 -7.38079309 0.11952895
O 9.16647197 -2.12866848 2.67127322
Pu 1.38458111 -2.56414063 -10.98626671
O -3.93820474 7.29497588 -4.35983351
O -8.66161869 -3.34708742 5.79062582
Pu -1.75543989 3.17240090 9.23289171
O -4.34562007 -8.20224749 0.57852208
O -2.09563667 -2.34101007 -8.74397557
Pu -2.38612840 4.94988663 -0.96630805
O -1.92527230 10.29283156 3.56005779
O 4.51378568 3.88980624 -4.44657559
Pu -3.95558797 1.78640120 6.40292455
O -4.75526848 -3.81598335 -1.51942956
O -1.28775407 -0.89671238 -3.87987713
Pu -1.54264345 -7.21919607 2.12109258
O -1.56708337 -4.57255004 5.00108415
O -7.59448579 -0.54165396 5.69444078
Pu -0.44938711 2.44032774 5.82093709
O 1.24946689 -3.81708966 6.11228984
O 5.17550344 -7.62717150 2.13797683
Pu 3.11561800 -1.03880456 -3.70995649
O -7.22821071 3.65768021 5.31834315
O -5.43357592 -1.61172392 -0.52220058
Pu 7.23765158 0.70046474 6.77356412
O -4.18218695 5.87836282 1.71602541
O 4.91227082 -6.28525141 -4.52701211
Pu -7.42820718 1.48588432 4.66755217
O 1.25826406 1.34498718 4.19329160
O 6.36755456 -0.89714825 -8.27522185
Pu -8.89685490 -1.64103630 6.65693916
O -9.29130074 4.96293040 -1.91637520
O 8.49671586 -3.84435254 0.56591093
Pu 2.49810656 -5.88565182 -1.91056479
O 11.40390762 -3.31078962 2.06972051
O 6.99757922 -2.35919789 -5.43287698
Pu -1.48184896 8.09100220 -5.31706165
O 7.25455263 -2.57477113 -2.45028686
O -9.58485807 2.13396170 -2.72206426
Pu -4.03470528 6.92741486 4.00002061
O -1.05210660 7.73524455 6.06861397
O -0.35042976 -3.39888114 -10.12721054
Pu -5.85905641 -1.45295007 -5.76676162
O 3.44524030 -0.18041565 -5.48406560
O -3.29185886 -0.27724684 7.13770244
Pu -3.38750691 -10.00801771 0.08665995
O -3.32465340 6.72016831 -8.05851532
O -8.13805783 -3.24794066 -2.16197481
Pu -4.73141993 -8.58889046 -2.95854112
O 1.63470823 -4.39487408 -1.05839343
O -2.18286598 7.28436425 0.20992488
Pu -6.45138863 4.05487495 2.60322321
O -0.22990044 -8.25796691 -3.14742951
O -5.82589040 6.83712091 4.88644156
Pu 8.57643907 -5.97559917 0.54754921
O 4.38955025 2.62827256 -6.92034259
O -3.62633896 9.70152907 6.87640872
Pu -0.26399291 0.98574720 -2.52666288
O -2.82482537 -3.12881394 3.09678919
O 3.27638662 -1.24475057 6.06849652
Pu 5.40213420 8.68355897 4.66889439
O -7.92250142 5.07740005 3.23644980
O -4.11395739 8.89968589 -1.20978573
Pu -2.57537602 4.15028240 2.99740149
O 1.98819704 -7.58948499 2.62731970
O -8.14025291 -1.05152152 1.08429369
Pu -7.75367118 1.12682728 -5.95076398
O 6.98879363 3.77469677 -4.90255863
O -6.53332851 -9.28409536 2.10187048
Pu -7.40834728 -5.04714176 1.30458200
O -2.54027320 0.11340809 -9.66975194
O 7.20381217 -5.26374333 -3.54745470
Pu -1.07089325 -10.00783852 -3.02561328
O 2.51372818 5.64791415 7.83873717
O 0.33050332 0.06356944 -6.88040140
Pu 0.51526589 -8.29812610 -0.93629436
O 4.08567690 -3.50263988 -1.85770104
O 6.52313485 -4.66948198 5.38553632
Pu 0.74316082 5.77245252 -2.79421153
O 9.42150754 -6.06225124 2.39417763
O 0.55967205 1.39177565 -0.78622366
Pu -3.19444825 10.61593355 5.09406252
O -2.02354238 -8.42758778 -7.46388242
O -2.79538589 -3.02943640 -3.02267389
Pu 6.21451476 7.71120956 -0.40002987
O 3.62322148 0.32099708 -7.96199585
O -3.12304416 8.73275881 -6.47064186
Pu -0.20986135 -1.57687912 0.04044658
O -2.79737317 -9.00475732 2.14327856
O -0.91402614 -7.34463974 4.35995174
Pu 5.63734005 4.64390427 -6.13752149
O -1.16408801 3.40615492 -1.16183162
O -5.14564171 4.88025372 4.05083404
Pu -0.59507723 -4.73709038 -0.14904603
O 6.95369728 2.38968237 -6.80409727
O -2.23629333 6.37024773 3.61180314
Pu 5.09758825 -1.11292204 4.73420469
O -4.38017506 -3.25292963 -5.44727134
O -7.92534364 3.69692301 0.03874262
Pu -4.32606117 7.15257056 -6.30492046
O 3.64393514 2.95991337 7.59578381
O 1.43528505 6.62231054 6.01915689
Pu -7.37905771 -4.84985560 5.10900873
O 4.08692401 -8.64386336 -3.79257735
O -8.01420815 -1.11086223 -3.89081336
Pu 1.35410231 -1.48395485 7.18597521
O -5.35291374 5.52835452 -6.87415357
O 1.53376730 -6.28517457 -3.71071358
Pu -1.74620175 4.44523856 -4.97726226
O -8.66129827 -8.18390131 -0.88287106
O 2.89827912 5.14961652 -2.69174255
Pu -6.42963494 2.26558619 -1.59229008
O 7.68778509 7.55028579 -1.64206229
O -3.27691886 -4.05457731 7.67234242
Pu -4.95505276 -8.06123946 2.87349028
O -1.76617841 -9.95685759 -1.00690619
O -0.31578203 -3.38303120 8.59799669
Pu 10.61371536 -1.53082192 1.37698146
O 5.30731549 0.32528314 6.10481843
O -5.06027613 -9.47357475 -1.09471387
Pu 3.61211856 -4.58225103 -7.67210312
O -4.88689682 3.28804199 -3.24794622
O 5.10143930 -9.21007124 -1.50305985
Pu -5.02551395 -3.68590556 -3.68638523
O 1.61766733 -4.18698047 -8.83293748
O 8.99178358 -3.52308330 4.70375407
Pu 4.79901143 4.01626662 5.68269567
O 0.38000476 4.47738567 -4.31850357
O 3.46044785 -6.13738155 4.74666349
Pu -3.97657321 -5.12064750 3.78072183
O 7.19921245 2.33686062 0.00862708
O 3.00192507 -9.63626933 -0.01677749
Pu -0.02046423 -3.06957148 -8.02088095
O -0.95847618 10.43514083 5.51292393
O -6.84928318 5.62775550 1.46158040
Pu 8.34235764 1.28135919 -1.11005335
O -0.57924042 -4.50395488 10.95799590
O 9.38427601 -0.49552597 -0.34248516
Pu 0.51628187 -4.88538749 9.44780867
O -2.50439758 -5.51247082 -8.16711223
O -3.89437792 -1.48484556 5.28593709
Pu -3.18445627 -0.90992939 3.61309492
O -1.22006377 2.43419104 -4.22188019
O 1.98964713 -4.05991689 8.37042736
Pu 10.02514666 -4.37803584 3.08100752
O -0.38154365 4.93980798 4.15101979
O 5.13686478 6.23330490 5.96922786
Pu -3.69915361 -4.40727644 -6.96125927
O 3.13786289 5.04017987 -6.42539647
O 0.66549273 -10.06119427 -2.08491967
Pu -1.26699935 -1.11246709 -10.58612203
O -1.74296311 -7.39592325 -5.41883621
O 9.61020903 3.05860665 -1.05818474
