420
ML-kMC step 4000
Pu 1.61515108 5.59220074 4.38600474
O 2.16507431 0.39669471 7.63171789
O 4.85918293 -2.77895994 -3.82871453
Pu 2.78024818 3.16568610 -5.35278071
O -5.39065653 8.03251935 2.00927383
O 9.45742438 -2.43031592 -3.09479889
Pu -7.56734942 5.75588948 -0.45546460
O 2.71816671 -11.34864042 -1.78942182
O -6.95462610 -3.44589280 -4.79377131
Pu -4.12016358 3.45167421 -7.51583124
O 0.84434706 -6.93367061 6.16005838
O 4.73430524 7.23251266 8.07570707
Pu 5.53613416 -5.56152980 3.63793915
O 2.09179694 2.03032637 1.14539033
O 5.47110268 6.23717159 -4.61177971
Pu -1.54783506 5.49163688 5.98381502
O -6.05508983 0.69964072 -5.10688074
O -4.26594499 1.30553439 -1.53916667
Pu -5.31549783 5.24229164 -3.20762970
O 7.59675878 2.75324446 -2.68833276
O 3.81384661 -0.84413540 3.26959804
Pu 1.58506078 3.89693512 8.07760098
O -4.41164411 1.25880821 -8.04198573
O -6.04784526 7.13045111 -0.78886803
Pu 0.38492124 -5.56499037 -9.96019124
O 1.89729201 7.39633940 -2.57842194
O -5.42961324 2.50579202 7.46128514
Pu 5.84597456 -3.31491399 -1.06501778
O -1.24336680 2.84983009 1.91877531
O -0.58002879 3.40067526 7.69085197
Pu -0.46875396 7.15700119 1.57596898
O 4.66816068 -5.59889540 1.85624648
O 0.87398718 4.18642975 5.99463489
Pu -3.40716581 -0.40258139 -8.04765949
O 1.10361666 -6.44967548 -6.12259670
O 0.55447014 8.76965225 -5.06130844
Pu 0.23793461 3.08013986 0.36341872
O -2.23846568 3.99831950 -9.16418393
O 4.62032438 -3.31267165 4.05623709
Pu -0.08509661 3.40826765 -9.15928815
O -6.61927551 5.16110888 7.51836106
O 0.55196707 -1.53324081 -9.11350253
Pu -3.42540096 -7.68603248 -6.22512947
O -4.60060714 -6.11318774 -6.76763211
O -5.79387623 -5.68354576 4.34196433
Pu -0.86259308 -6.09201250 5.96730034
O 6.17678693 2.60342663 6.43437601
O 1.07487212 -11.32155602 0.80378222
Pu -2.50269899 8.02829315 7.41062026
O -2.24056995 1.98809637 4.68418031
O -9.03800123 5.92501786 0.95977032
Pu 5.45343700 1.07026588 -7.30178097
O 3.54862995 -6.68571347 7.76354656
O 0.38478325 7.47525135 3.67723731
Pu 4.43693041 0.83551925 7.70975805
O -3.91199228 -5.60987976 -3.24958886
O -9.20012983 -4.61842172 0.45017099
Pu 7.41221633 -2.85140509 2.04731076
O 1.72737531 3.92652398 3.16037797
O -0.81885049 7.15693618 -2.16481251
Pu 0.16655044 8.94425623 -2.60791017
O 4.67509703 8.52056561 1.13491759
O -5.94217088 -6.49937486 1.37363208
Pu -1.60251686 7.03673231 -8.70703621
O 4.18339693 6.73955619 0.00177009
O 4.37064797 2.01856457 -9.52358611
Pu 2.15731755 -8.01954354 4.86151771
O -4.56312638 2.19958696 2.75988168
O 1.63768473 9.59769279 -0.72001218
Pu 2.66586998 -5.09182813 6.75857877
O 2.80109137 -1.34955755 -9.98133440
O 0.71400103 -7.06126592 -8.76239782
Pu -8.98618109 5.05016296 5.05303450
O 9.62253131 0.86863593 1.69359546
O 4.93452840 -3.23919692 -8.38460653
Pu -0.85360655 -6.33058324 -3.81766239
O -8.26256187 6.81803074 4.81619631
O -7.13483372 5.13096797 -4.17909279
Pu 5.02438049 6.06007898 1.99504465
O 3.91723904 4.12086934 1.25362407
O -8.35014092 3.07961078 -5.51713206
Pu 11.61750938 2.70507966 -1.59327096
O 6.73583680 4.59678228 6.46839999
O -1.89033467 6.22414003 7.93066438
Pu 3.73289044 1.06866930 -0.79580120
O 0.41901131 -1.74799320 -5.24056923
O -5.51714199 -3.40123297 6.02573892
Pu -1.17324823 0.87843999 -5.81579556
O 4.12281845 5.28536473 3.82278984
O 2.92407875 7.41943046 -4.80888600
Pu -10.43095667 2.01794404 6.23339115
O -9.50447721 3.82915617 6.67686189
O 12.29081882 4.11760372 -2.67480567
Pu -9.45009849 4.09498738 1.41380555
O 5.26619510 5.84518028 -1.66413854
O -3.43590599 4.19092170 5.42070276
Pu -9.02598594 0.67035233 0.55760397
O -10.03543288 4.31166431 3.33571006
O 1.16439791 -8.65563200 -5.86086501
Pu -9.28806205 -6.02411260 -1.03294407
O -1.93471138 -0.60176591 -0.38490184
O 2.10894348 4.50191679 -9.13041454
Pu -1.53104941 -3.21225612 6.89242549
O 4.38827795 1.82529102 1.84983742
O -3.46151644 6.50088370 6.31210044
Pu -4.49028933 7.48195289 0.34388570
O -3.36187017 0.42370459 -5.48611275
O 6.41910347 4.98754409 3.13456191
Pu -0.74901538 8.87364690 4.35117472
O 0.67265792 4.48946556 9.68223939
O 7.81835968 2.71614843 2.57098771
Pu -5.82500292 -1.24717288 5.53529056
O 0.43258217 0.30250404 -10.37866050
O 4.84137501 3.24212029 -1.14779753
Pu 7.00164824 -0.98581296 -3.87301927
O 6.56530888 -5.11615671 -1.44679010
O -2.16651626 6.02939910 -5.97079539
Pu 2.14510740 -9.85426866 1.83122906
O 6.24846034 5.29063805 0.61351608
O 10.96370852 0.84888712 -2.33300426
Pu 9.28045234 3.59147598 0.98093202
O 7.68950715 -4.61254253 2.82877451
O -1.31097764 1.30821353 7.21535647
Pu -3.26420575 -1.55401546 -1.77162297
O -0.32210914 7.48993365 -7.07728702
O -0.03507748 -1.88897306 -12.19038558
Pu 1.52305420 7.03551803 -6.03816011
O -9.84526515 -4.97133961 -2.83844509
O -0.66602657 -11.92321575 -2.55391756
Pu 2.37914317 -2.67971608 -1.46791825
O -7.24611214 0.34011257 -1.00209635
O -4.62770186 -4.27208378 9.66322886
Pu 3.19708188 -9.48832985 -2.19854768
O 6.31975165 -4.23265929 -6.46320339
O -0.15928004 -5.07375858 -2.50240384
Pu 2.88096789 8.41502741 0.11758500
O 8.58587358 0.37472596 -3.34317491
O 3.84355698 -6.22960289 -6.67225863
Pu 2.52061691 -7.46559944 -4.98407379
O -4.28892481 4.50606146 -5.07409575
O -9.29726783 -0.30720895 -1.22248458
Pu -3.09421335 7.70718654 -2.53558406
O -1.01544229 -5.07305220 2.19780630
O 5.13146818 5.25186072 -7.81831057
Pu 5.03304322 -8.17735096 0.25674919
O 1.10443413 1.87707144 -4.77856113
O -3.39230467 3.46057056 0.26577093
Pu -4.36990399 1.16961969 -3.89181150
O 1.74719113 -4.57736177 -11.12736305
O -5.88355477 -7.38953829 -1.78703280
Pu 7.45861798 -3.13565880 5.96465932
O -4.53631150 -1.82941931 -7.14694352
O 6.39857086 -1.57694791 6.60874929
Pu 6.51316803 6.61551033 7.37113241
O -1.16431274 5.40690957 1.07053204
O -8.58452302 1.91494139 7.63124197
Pu 8.15010450 4.11486080 7.92860517
O -2.86554036 -9.03627384 -3.00633378
O -2.27107363 -2.07629027 9.29967533
Pu 6.06905390 4.06081741 -2.80457887
O -10.03851448 2.27667667 0.77067731
O -1.41853846 -3.99091046 -6.63679851
Pu -0.54503018 -3.28130858 3.25045145
O 7.09498135 -1.23775489 4.46260524
O -4.18371104 5.92659197 -1.57818212
Pu 2.56000177 -2.27534536 2.45852494
O 3.72746453 8.83396565 5.70358781
O 5.01920836 0.28471570 -2.80325345
Pu 2.84568558 2.28904063 3.11218434
O 2.46312559 -3.15477151 -7.12409146
O 8.15238680 2.83896380 9.34992525
Pu 0.95992904 -12.14558875 -1.34190357
O -7.45075069 2.04055673 2.30902720
O 0.37352499 -8.63029094 1.04776264
Pu -6.73267038 -8.30053835 -0.02983016
O -7.59168538 -0.86712255 -6.42351118
O 2.91889202 -3.93964760 0.94398587
Pu 6.79717433 -2.66299317 -7.44317017
O -4.63631866 -8.76067011 -4.84839351
O -1.04408249 -3.07489575 -1.31604646
Pu 5.97110710 -7.07205986 -2.98573626
O 7.17959786 -7.35579909 0.14050371
O -7.78696608 -4.76245625 3.15167319
Pu 3.44403040 4.69878219 -0.64173761
O -10.17475539 -1.73303933 -3.96413611
O -5.94926874 -3.72124900 1.70230944
Pu -0.11526073 -7.72895876 -7.10197590
O 6.40546273 -1.98245513 0.65666741
O -5.62716703 1.01311701 5.04848521
Pu -5.29086626 -3.97502235 7.83178401
O -2.61836263 -6.44748516 -0.01147802
O 1.60058132 2.33934667 -9.18403617
Pu 6.08744290 3.24276380 1.65848768
O -6.81401462 -1.88856893 7.37418551
O 4.79431555 7.43657728 3.32221314
Pu -3.25986094 1.24096470 0.34143036
O 1.43100202 4.72693133 -0.92743341
O 0.26664106 -3.58816434 1.10685230
Pu 8.27388773 0.76619533 3.49251630
O 4.99546070 2.57009336 4.05100339
O -0.04875855 6.66584115 -4.74738675
Pu -4.43712489 -5.79129550 -0.06820975
O 1.43502269 -3.84206933 3.51184072
O -6.64724916 4.63350498 -1.76515694
Pu -1.84886134 -0.39754837 8.46292302
O -5.99982598 -1.35016456 3.57498032
O 8.81629984 0.54178244 5.42579761
Pu 2.33353981 -0.98744990 -7.12480345
O 6.60384014 0.32324991 -5.69758191
O 2.37668689 -9.66094891 3.81057654
Pu 8.02660157 2.12060114 -4.78835831
O -3.75866559 -6.41229489 2.13425514
O -0.24780142 5.58195851 -9.06272023
Pu 3.21224525 7.12796841 6.86725728
O 6.15131042 0.83673039 8.74814091
O -1.58341176 -1.09802744 1.68070045
Pu 8.77091541 -4.21671413 -2.80737579
O -2.52899147 5.71724198 -3.18867546
O -2.15575466 0.57868421 -2.48432342
Pu -5.29549783 5.06327362 6.01629591
O -6.36847793 -5.55676316 7.15199031
O 1.38191897 7.42829861 0.92743252
Pu 5.61593227 -4.36993301 -4.57767220
O -0.50421569 -1.85956218 5.98247672
O 0.05704858 -0.77479472 8.68539954
Pu 4.19669330 7.00466132 -3.33308973
O -2.85707223 3.20940419 7.51807504
O -7.40336099 -5.94340920 -0.71624035
Pu 2.44139034 0.68558224 -9.65828151
O 1.80993546 -1.49053632 0.14181365
O -7.26739704 1.44103899 -3.17985758
Pu -0.54290182 -2.76418458 -3.86551099
O 6.69632701 7.87005231 5.86572431
O 9.09766872 4.53069636 2.89329214
Pu 7.89237773 4.55136146 4.52022403
O 11.42320127 -1.53067890 -0.39378711
O -2.56139335 1.30256858 9.53309108
Pu 2.42733197 -5.91842072 1.67864572
O -0.30035784 -6.60929908 -0.63067910
O -10.16345439 -0.10095829 6.23205916
Pu -7.31666674 3.32793223 7.73208665
O 8.36982180 6.02803592 7.80592551
O 2.00925670 1.12613241 -2.51103668
Pu 10.57892718 -0.99591376 -2.02466363
O 1.30438447 -2.46283503 -3.08344905
O -4.12245195 -0.60591158 1.68632922
Pu -7.33909511 -1.46052580 -1.70167761
O -4.98194817 -1.36169509 -3.29552894
O -2.27941761 2.71636975 -6.82023182
Pu -5.95542962 -1.27653076 1.43667648
O 4.53741810 -6.06466061 -1.88485886
O 8.68354223 3.27779719 5.86819187
Pu -9.58628325 0.11015105 -3.05879045
O 9.54603274 -4.96507826 -1.08618976
O 3.59189205 -1.21662994 -1.36218586
Pu -7.22574634 6.98374474 2.96274851
O -1.59983359 8.94516768 -3.33383895
O 2.01258633 -7.79334804 -2.09973578
Pu -2.68429779 -3.80458696 10.13363260
O -3.23167105 8.64768522 4.16747339
O 4.52639432 8.33948013 -1.73333325
Pu -8.82842245 -3.47781984 -4.10437136
O 11.15365457 2.65161556 0.35828226
O -9.17663620 2.30375371 4.67921937
Pu 3.82751436 3.84833604 -8.58860772
O -1.05750646 -5.41249330 7.77160742
O -4.09634090 -7.09129679 4.36205370
Pu -8.62669631 4.05730795 -3.49668166
O 2.99645401 -7.26628078 0.22709796
O 9.10636511 -2.04143745 2.66545216
Pu 1.37986960 -2.55110376 -11.00639513
O -3.77146729 7.16033297 -4.34163821
O -8.72914995 -3.36995507 5.76680565
Pu -1.78702816 3.12699902 9.20827460
O -4.31900597 -8.10486491 0.49876114
O -2.01352061 -2.34215717 -8.73874728
Pu -2.34815634 4.94316415 -1.01814126
O -1.94488753 10.23868718 3.45225423
O 4.52604262 3.89148273 -4.45302976
Pu -3.95558797 1.78640120 6.40292455
O -4.79260057 -3.77250907 -1.64588025
O -1.20233874 -0.87226687 -4.06402888
Pu -1.54264345 -7.21919607 2.12109258
O -1.50791028 -4.49116034 5.12584719
O -7.62345593 -0.50047031 5.64108034
Pu -0.41598371 2.43747259 5.79586255
O 1.36448771 -3.81194364 5.94604998
O 5.24047271 -7.61956418 2.30963377
Pu 3.10808957 -1.10219705 -3.76990067
O -7.26266514 3.75895428 5.26706767
O -5.46733075 -1.33105291 -0.48543499
Pu 7.23811187 0.76213809 6.83009797
O -4.18218695 5.87836282 1.71602541
O 4.91109594 -6.20095486 -4.40443264
Pu -7.42820718 1.48588432 4.66755217
O 1.39176785 1.51855822 4.43789105
O 6.13492701 -0.86275760 -7.96583507
Pu -8.87755316 -1.63274203 6.63668633
O -9.19009011 5.04633322 -1.87272093
O 8.52529899 -3.77357019 0.60933730
Pu 2.48797562 -5.89562550 -1.90233666
O 11.15116995 -3.28083666 2.05591063
O 6.93042737 -2.30413343 -5.30764013
Pu -1.38880508 8.07116467 -5.31265897
O 7.17557325 -2.52955560 -2.45637276
O -9.44813574 2.17574720 -2.72731380
Pu -4.03470528 6.92741486 4.00002061
O -1.18836113 7.51293340 6.05303358
O -0.35943227 -3.34637501 -10.09933063
Pu -5.77431854 -1.53201752 -5.61106375
O 3.28987058 -0.23950212 -5.47289163
O -3.29185886 -0.27724684 7.13770244
Pu -3.37423404 -9.81200405 0.06948516
O -3.36266159 6.64239089 -8.04711679
O -8.09774490 -3.20400401 -2.29101975
Pu -4.71938541 -8.57009322 -2.95305132
O 1.59882144 -4.37612067 -1.10444988
O -2.18279433 7.30064262 0.22411679
Pu -6.45138863 4.05487495 2.60322321
O -0.33124008 -8.27479876 -3.05481945
O -5.84039316 6.74611316 4.67039096
Pu 8.47238262 -5.79667440 0.60036487
O 4.33802263 2.73874764 -6.77440731
O -3.57268736 9.56622386 6.81334066
Pu -0.20251470 0.98591269 -2.58890025
O -2.72546801 -3.37967909 3.02645628
O 3.30873456 -1.23557022 6.01427815
Pu 5.38220606 8.65637255 4.70962524
O -7.92250142 5.07740005 3.23644980
O -4.01797376 8.76097362 -1.22558218
Pu -2.46608951 4.03989707 2.88827596
O 1.84836618 -7.53201592 2.70318779
O -8.15472309 -1.05163993 1.09089699
Pu -7.76050924 1.13700441 -5.96252299
O 7.01290537 3.78016605 -4.89980482
O -6.32986811 -8.97476849 1.95124392
Pu -7.31341773 -5.05806910 1.33103976
O -2.28715931 0.12267561 -9.50770657
O 7.26835802 -5.26306562 -3.51889372
Pu -1.12507366 -10.01947561 -3.02676719
O 2.54982416 5.58266217 7.84160090
O 0.26600560 -0.00176433 -7.12189754
Pu 0.50891417 -8.37073487 -1.01622987
O 4.09535644 -3.52330653 -1.86146665
O 6.42163059 -4.88437564 5.58833871
Pu 0.74316082 5.77245252 -2.79421153
O 9.34997894 -6.04283501 2.35646853
O 0.55967205 1.39177565 -0.78622366
Pu -3.22276378 10.65403403 5.04074447
O -2.01782850 -8.34046887 -7.46587448
O -2.55508213 -3.09297472 -2.98843642
Pu 6.10552890 7.63684968 -0.36581653
O 3.64399465 0.54550965 -7.92152920
O -2.99289577 8.53942126 -6.30249851
Pu -0.22700404 -1.58320588 -0.00126659
O -2.75610129 -9.05875357 2.26334485
O -0.88352516 -7.30351555 4.23379546
Pu 5.52777034 4.58557839 -6.07570960
O -1.16408801 3.40615492 -1.16183162
O -5.11915832 5.02821646 3.84698850
Pu -0.59170487 -4.73842030 -0.15091991
O 6.84043941 2.53804462 -6.53100600
O -2.19705930 6.42564809 3.87440221
Pu 4.98975435 -1.13170000 4.75063139
O -4.28718635 -3.20629822 -5.43337004
O -7.98957228 3.80983744 -0.02867073
Pu -4.29242043 7.08815903 -6.25447659
O 3.41473526 2.97759785 7.66798120
O 1.48432515 6.60451560 6.05136889
Pu -7.31145843 -4.79344337 5.06705595
O 4.24727614 -8.68757943 -3.75621126
O -7.77872779 -1.01166035 -3.93945349
Pu 1.36978271 -1.50622385 7.14225419
O -5.36368599 5.61088627 -7.02420102
O 1.62050382 -6.27883265 -3.60357645
Pu -1.74620175 4.44523856 -4.97726226
O -8.44717752 -8.13859711 -0.87388412
O 2.92948765 5.17276837 -2.70140652
Pu -6.50439300 2.32014008 -1.49940001
O 7.57137065 7.48366694 -1.64391565
O -3.17713089 -3.92410186 7.52862787
Pu -4.93256947 -8.06700141 2.91246775
O -1.82945504 -9.97005445 -1.17067140
O -0.34569166 -3.35248197 8.46067520
Pu 10.57174166 -1.45423576 1.45494962
O 5.33582099 0.32255819 6.07334451
O -5.07452222 -9.51466729 -0.98888619
Pu 3.61211856 -4.58225103 -7.67210312
O -4.87657114 3.19686893 -3.32544208
O 5.09792389 -9.14902147 -1.46968808
Pu -4.97615089 -3.79595541 -3.66007905
O 1.56476433 -4.33499827 -8.71692924
O 8.93361724 -3.55216003 4.73561137
Pu 4.79901143 4.01626662 5.68269567
O 0.40464578 4.46848342 -4.32881152
O 3.40446575 -6.16789125 4.84787757
Pu -4.00306978 -5.13663950 3.72813066
O 7.30827073 2.30424968 0.15537486
O 2.99012912 -9.56059951 -0.03860819
Pu -0.21649794 -3.15577152 -7.87503190
O -0.87061077 10.46394034 5.45152004
O -6.84928318 5.62775550 1.46158040
Pu 8.38346831 1.34842656 -1.22560438
O -0.76709090 -4.54921051 10.73752649
O 9.43121555 -0.53016570 -0.35031874
Pu 0.54266980 -4.79419210 9.36076107
O -2.51732772 -5.54042849 -8.15889442
O -3.89437792 -1.48484556 5.28593709
Pu -3.09999157 -0.93923296 3.49362812
O -1.23052690 2.42983633 -4.24543223
O 2.04907952 -4.03067568 8.37561049
Pu 9.86514579 -4.25018340 3.14745402
O -0.35418131 5.00065410 4.16308552
O 4.85617421 5.89257886 5.99521349
Pu -3.71824397 -4.42868703 -7.02035042
O 3.09954988 5.06679452 -6.40486224
O 0.66515554 -10.06525896 -2.27273543
Pu -1.17003830 -1.23666744 -10.48751537
O -1.65560825 -7.44922507 -5.18213770
O 9.55018989 2.99638468 -1.17936777
