420
ML-kMC step 1000
Pu 1.55485030 5.65633557 4.27559304
O 2.47819500 0.71693100 7.75585400
O 4.83664925 -2.83523548 -3.82507332
Pu 2.94847990 3.08465292 -5.43906506
O -5.52608084 8.10367022 1.96287636
O 10.37831893 -2.71564241 -3.37627503
Pu -7.91651339 6.01058528 -0.28068093
O 3.07035541 -11.75158181 -1.76537997
O -7.02327349 -3.45885256 -4.85817943
Pu -4.27057300 3.60264200 -7.45970400
O 1.16922211 -6.75540927 6.49987887
O 4.95452758 7.35499409 8.36873048
Pu 5.56579619 -5.76418904 3.88787907
O 1.94595890 2.02841013 1.17862394
O 5.53944657 6.39704439 -4.96440805
Pu -1.40696259 5.51058227 6.17804074
O -6.07050521 0.70434879 -5.05073528
O -4.25559906 1.20582178 -1.41036787
Pu -5.38517459 5.22445456 -3.21414427
O 8.10714150 2.53889950 -2.62323340
O 4.15985912 -0.80060937 2.78873206
Pu 1.64325065 3.91735441 8.09440891
O -4.57914238 1.30534398 -7.95444921
O -6.16686000 7.49445100 -0.93600100
Pu 0.37107858 -5.74622094 -10.49428332
O 1.83147969 7.54264901 -2.74147128
O -5.56862914 2.67090772 7.81988517
Pu 5.86315476 -3.26608840 -1.09856653
O -1.45624921 2.98856321 1.85070009
O -0.52771428 3.47911718 7.90233525
Pu -0.59861682 7.05347571 1.43539827
O 4.72680423 -5.55057733 1.83349870
O 0.86524768 4.26817709 5.95743002
Pu -3.61731497 -0.56411839 -8.22633976
O 1.09216679 -6.46828812 -6.18458535
O 0.82665315 8.86904692 -5.17557013
Pu 0.06471069 2.88409929 0.41595510
O -2.08839963 4.42116797 -9.13991819
O 4.81049504 -3.29025080 3.82090186
Pu 0.01886661 4.13644222 -9.55536890
O -6.71322217 5.08522070 7.63149487
O 0.62015808 -1.75126882 -9.54411832
Pu -3.63990201 -7.92554715 -6.86389482
O -4.70992763 -6.17727953 -6.74463574
O -5.79592619 -5.68800438 4.25032818
Pu -0.82221955 -6.23110528 5.98687619
O 6.15100236 2.61289411 6.52695568
O 1.10131287 -11.86185672 0.92848426
Pu -2.69816820 8.20616239 7.57558674
O -2.07281469 2.25170794 4.95600048
O -9.49381432 6.08249405 0.84553547
Pu 5.78779011 0.85706321 -8.00536985
O 3.41728009 -6.58204012 8.16525060
O 0.44285467 7.46495990 3.54968097
Pu 4.53072334 0.79249062 7.84571084
O -4.34635312 -5.95349517 -3.50363306
O -9.69160264 -5.09299904 0.38165388
Pu 7.37610423 -2.91564037 2.04040695
O 1.40758083 3.77526176 3.19706253
O -1.01705048 7.70070343 -2.28760132
Pu 0.11412744 9.27156922 -2.63558818
O 4.91583662 9.05297999 1.38965580
O -6.02260871 -6.64215678 1.31672098
Pu -1.82026953 7.42407541 -9.09584499
O 4.10553838 6.92501587 0.07327826
O 4.15632090 1.89243998 -9.59978086
Pu 2.17812252 -8.13727368 4.42027022
O -4.75560231 2.34931163 2.60221108
O 1.68664068 9.93277419 -0.80356165
Pu 2.95704346 -5.11319820 6.83903498
O 2.65056272 -1.36641552 -10.80173468
O 0.81381740 -7.35908078 -9.09388681
Pu -9.15680736 5.21718800 5.12545566
O 9.63543174 0.66768658 1.85366196
O 5.17581518 -3.26106448 -8.57746653
Pu -0.62712982 -6.44092230 -4.08677502
O -8.21079104 6.84658613 4.77698712
O -7.54336569 5.46123024 -4.28987013
Pu 5.00513240 6.05479122 1.95691460
O 4.03062118 4.37265726 1.35963645
O -8.37700345 2.93723153 -5.34690633
Pu 12.18586481 2.81404510 -1.45419763
O 6.74987152 4.85682627 6.49518846
O -2.07831219 6.27446098 8.14669051
Pu 3.75814725 0.91217352 -0.90870332
O 0.36753105 -1.61463642 -5.12778404
O -5.64359495 -3.30714236 5.95974266
Pu -1.00923360 0.89979754 -5.81981962
O 4.11581338 5.28811899 3.69788776
O 3.35744974 7.85303510 -5.15498552
Pu -10.97686723 2.27580528 6.44774628
O -10.32675409 4.11227675 6.59737793
O 13.11632157 4.19846128 -2.44789350
Pu -9.91849088 4.22280898 1.40084610
O 5.63978409 5.84172240 -1.80822612
O -3.35315582 4.47691407 5.49457615
Pu -9.30453567 0.43919630 0.75880649
O -10.21318467 4.47024278 3.32122825
O 1.23027730 -9.02132457 -6.10050649
Pu -9.74665537 -6.03655101 -1.59754098
O -2.41219232 -0.12938751 -0.09864127
O 2.35477030 4.65846187 -9.70918733
Pu -1.73178868 -3.11998565 6.89606546
O 4.59169700 1.83317000 1.70933800
O -3.74193564 6.72265823 6.49935209
Pu -4.53343141 7.50294646 0.30395368
O -3.57452070 0.58066782 -5.63387563
O 6.69956227 4.65140143 3.32918141
Pu -0.96543032 9.21882799 4.65428899
O 0.65217097 4.55986575 9.76757586
O 8.23179578 2.60232657 2.65329319
Pu -5.93383928 -1.31369487 5.74313085
O 0.08973226 0.32325939 -10.74120353
O 4.92307347 3.27215813 -1.17789553
Pu 7.20324500 -1.09186100 -4.00110500
O 7.15853607 -5.68354286 -1.39692140
O -2.37439210 6.03408134 -6.26509562
Pu 2.10186471 -10.20833755 1.75461121
O 6.32809073 5.37889159 0.75401040
O 11.44828735 0.84414415 -2.07187149
Pu 10.01550261 3.71459518 1.44952698
O 7.70077071 -4.82097564 2.80466117
O -1.11858799 1.40039955 7.61615228
Pu -3.31119928 -1.59595366 -1.89548126
O -0.36334887 7.88702459 -7.45579300
O -0.34552915 -1.81795885 -12.29597546
Pu 1.79714746 7.16307826 -6.35347585
O -10.35547683 -4.75825647 -3.09888977
O -0.43006158 -12.36173110 -2.28838591
Pu 2.37159758 -2.66722179 -1.47984683
O -7.35268620 0.45177278 -0.91996603
O -4.64157976 -4.35091756 9.79559880
Pu 3.26441183 -9.82139335 -2.36990057
O 6.48889820 -4.53269694 -6.57888753
O -0.11993301 -4.81931592 -2.41093001
Pu 2.98855473 8.77408124 0.10875648
O 8.86101064 0.29531243 -3.55288005
O 3.92885526 -6.57018740 -7.04048390
Pu 2.62309300 -7.63847900 -5.23304700
O -4.29416974 4.10949656 -5.41182273
O -9.77370100 -0.32245100 -1.45674200
Pu -3.23789700 7.83714400 -2.58772300
O -1.12195728 -5.05085756 2.15189283
O 5.17138629 5.22507209 -8.06617846
Pu 5.17078299 -8.37896281 0.31178717
O 1.15837968 1.95670330 -4.77125612
O -3.49813612 3.44549305 0.43334855
Pu -4.20782100 1.05777600 -3.88237400
O 1.52824300 -4.57981818 -11.83224347
O -6.08315694 -7.65657066 -1.70144487
Pu 7.70078191 -3.25197315 6.15986497
O -4.53919500 -1.83531600 -7.15147300
O 6.81396506 -1.65779626 6.90556420
Pu 6.60107266 6.81885919 7.57270843
O -0.87995162 4.91308276 1.12957348
O -8.88279507 1.94755494 7.89321237
Pu 8.23108631 4.20694506 8.08634671
O -2.83189158 -9.17872408 -3.04810132
O -2.53251446 -2.36209514 9.56083796
Pu 6.07454886 4.09423738 -2.78980395
O -10.04671890 2.35010313 1.00902320
O -1.17411593 -4.13262530 -6.55591174
Pu -0.52826113 -3.18122559 3.32959480
O 7.19459658 -0.71006596 4.63756024
O -4.18210788 5.93033627 -1.56602658
Pu 2.67838603 -2.21683677 2.61784364
O 3.87162666 8.77234534 5.73827698
O 5.20728415 0.28372371 -2.60604779
Pu 2.88153918 2.40559804 2.93994138
O 2.49770312 -3.09320977 -7.11050156
O 8.59130123 3.13905645 9.64728119
Pu 1.12088613 -12.23800887 -0.96654983
O -7.64825274 1.70862240 2.36960533
O 0.06547314 -9.06030840 1.28219790
Pu -7.00594652 -8.47390881 0.03047717
O -7.60302750 -0.68300725 -6.53089121
O 3.02186958 -3.93263287 1.77058848
Pu 6.91787371 -2.91801431 -7.76627288
O -4.23858677 -9.24460326 -4.87149570
O -1.07135970 -3.20077456 -1.33850335
Pu 6.06706972 -7.12765693 -2.95492774
O 7.67206967 -7.64398927 0.37786645
O -8.35410219 -5.11559923 3.34411649
Pu 3.34205229 4.68213005 -0.63453358
O -10.56015653 -2.15527625 -3.82816531
O -6.01229805 -3.67873681 1.54381836
Pu 0.03721946 -7.89730527 -7.43842747
O 6.13779072 -1.76651683 0.62840980
O -5.66628100 1.31387500 5.15268700
Pu -5.44702153 -4.10304890 8.01807400
O -2.45312400 -6.38518600 0.14855300
O 1.61161627 2.55558409 -9.37025082
Pu 6.16013074 2.94826417 1.64105792
O -7.31247225 -1.98324816 7.68858129
O 4.81588116 7.47400883 3.28910728
Pu -3.50965841 1.39359510 0.45969642
O 1.31260886 5.04081157 -0.84330325
O 0.60889760 -3.54573006 0.96332055
Pu 8.65850279 0.42401591 3.89838241
O 5.23996976 2.63539020 4.09689180
O 0.07489626 6.74713238 -5.00015893
Pu -4.41691617 -5.75110576 -0.16397403
O 1.49927815 -3.55284834 3.41293527
O -6.76566429 4.54348465 -1.83658986
Pu -1.91802425 -0.25323573 9.08732085
O -5.77420734 -1.61625222 3.75125788
O 8.98394699 0.04484439 5.80626031
Pu 2.33150225 -0.94109048 -7.14874932
O 6.73201682 0.35873988 -5.78132688
O 2.56331955 -10.01694702 3.71540820
Pu 8.08253885 2.18154762 -5.04136392
O -3.92262043 -6.34140603 2.07593730
O -0.39565353 6.21752207 -9.94801115
Pu 3.31276723 7.55339950 7.28956772
O 6.18571124 1.03486754 8.77572581
O -1.55267000 -1.10374411 1.72646815
Pu 9.17218816 -4.27283859 -3.02935078
O -2.42671932 5.56698126 -2.97755557
O -2.20580989 0.32573119 -2.33600930
Pu -5.35393904 5.05003618 6.24036419
O -6.33281232 -5.61601679 7.17394320
O 1.32838960 7.72296491 1.29649140
Pu 5.93029700 -4.35787700 -4.66670800
O -0.49934612 -1.81177560 6.07574737
O -0.09009315 -0.83083149 8.83882641
Pu 4.27243153 7.27566140 -3.38821030
O -2.72065724 2.96883566 7.56098349
O -7.79908258 -6.23991250 -0.90655659
Pu 2.21194573 0.66391214 -9.96968914
O 1.96234910 -1.44961384 0.55721414
O -7.33410960 1.30595630 -3.13521669
Pu -0.50271928 -2.70207866 -3.79091126
O 6.76594931 8.27803425 5.99600068
O 9.60862738 4.46802614 3.24733323
Pu 8.06078320 4.73273515 4.68464536
O 12.17608342 -1.52188592 -0.41120267
O -2.52340651 1.76129488 10.50843547
Pu 2.55302776 -5.97202047 1.74108829
O -0.18158396 -6.48703744 -0.81531705
O -10.58546110 0.18557816 6.44092773
Pu -7.66304887 3.51443296 8.18891088
O 8.52494355 6.08868788 7.95660679
O 2.09275725 1.19192052 -2.32430832
Pu 11.18117735 -1.06136914 -2.09360860
O 1.27246482 -2.51691713 -3.10857320
O -4.16902336 -0.65370287 1.70315160
Pu -7.46658500 -1.41535300 -1.85640500
O -4.94739002 -1.55696501 -3.86726278
O -2.33787028 2.95415945 -6.73371898
Pu -5.95558647 -1.36269845 1.45247767
O 4.47463700 -6.14979102 -1.71382101
O 8.85180746 3.64545453 6.11554604
Pu -9.84692321 0.09997347 -3.31456191
O 9.72752277 -5.11065208 -1.39285962
O 3.57490657 -1.15358947 -1.39010702
Pu -7.05290779 7.08826777 3.00449137
O -1.86859592 9.24478243 -3.41752078
O 1.85029675 -8.03124433 -2.34902326
Pu -2.80286842 -4.10249659 10.31399887
O -3.50689668 9.12314498 4.50833906
O 4.94128869 8.48639930 -1.61277295
Pu -9.11713026 -3.40917083 -4.15043571
O 11.79084985 2.76225750 0.75006078
O -9.37410008 2.06848836 5.10677783
Pu 3.95346804 3.97676099 -8.92644054
O -0.98202745 -5.38027830 7.90717618
O -4.14550095 -7.00821189 4.27197011
Pu -9.04558993 4.07788888 -3.70989426
O 3.15323026 -7.36660027 0.14030212
O 9.31174250 -2.32216761 2.81197221
Pu 1.35941964 -2.51892582 -11.65470314
O -4.04803700 7.58085000 -4.29477400
O -8.73564311 -3.69262426 6.08109294
Pu -1.69593885 3.26307549 9.41861918
O -4.65349592 -8.60764054 0.48552756
O -2.24323752 -2.43628634 -8.96684682
Pu -2.38612840 4.94988663 -0.96630805
O -1.95260799 10.98083542 3.79387163
O 4.56212073 3.95319853 -4.31461292
Pu -3.93549271 1.77704068 6.59510031
O -4.67021640 -3.77458505 -1.49492897
O -1.28605101 -0.92182547 -3.86831701
Pu -1.74613470 -7.26227013 2.44533636
O -1.61251687 -4.54314910 5.03047296
O -7.68373487 -0.57190124 5.73573841
Pu -0.36365921 2.36279587 5.87413651
O 1.01158288 -3.60922068 6.31377958
O 5.19228934 -7.82091910 2.32349613
Pu 3.09580625 -1.08227248 -3.76946232
O -7.46972932 3.71656911 5.77438778
O -5.40187426 -1.43037138 -0.50040311
Pu 7.48731257 0.73007548 6.89761868
O -4.38146875 5.76611631 1.61606388
O 5.04546000 -6.30408200 -4.41205900
Pu -7.51325289 1.60651118 4.71227200
O 1.39674369 1.38907017 4.45154465
O 6.65628630 -0.86894869 -8.23316300
Pu -9.09132770 -1.71226475 6.73971287
O -9.71182907 5.34353325 -2.42891622
O 8.54407004 -3.75862717 0.66139564
Pu 2.42968278 -5.81354330 -2.17834109
O 11.54386169 -2.87124326 2.34299883
O 7.14676989 -2.55890223 -5.38342876
Pu -1.39162164 8.09644079 -5.47463435
O 7.58633200 -2.77305200 -2.69094900
O -10.05674989 2.12068414 -2.72170511
Pu -3.95564536 7.23256542 4.17750415
O -1.29970137 8.08893902 6.17558065
O -0.25781086 -3.77007820 -10.60124776
Pu -5.78905820 -1.43486326 -5.72263248
O 3.47108880 -0.25887097 -5.45887456
O -3.33395243 -0.21053281 7.25642571
Pu -3.36884629 -10.03732252 0.06538589
O -3.64399985 7.00003760 -8.61042156
O -8.30744338 -3.26425701 -2.24812862
Pu -4.84801921 -8.63258284 -3.00229200
O 1.45143941 -4.29482963 -0.93819983
O -2.27901205 7.40924365 0.11124218
Pu -6.45138863 4.05487495 2.60322321
O -0.37216622 -8.32281730 -3.02006195
O -5.74112425 6.90087894 4.90283923
Pu 8.69897728 -6.03455657 0.62705785
O 4.29142430 2.64968753 -7.02063158
O -3.71364588 9.97862175 6.85876351
Pu -0.26864170 0.88942146 -2.49562192
O -2.90703756 -2.82237514 3.18763779
O 3.38858500 -1.25256400 6.07140600
Pu 5.44669693 8.69056066 4.66520945
O -7.97662257 5.23067186 3.29192007
O -4.27058180 8.88037659 -1.27590599
Pu -2.56835100 4.15679900 2.99260200
O 1.94085120 -7.83774553 2.32794572
O -8.08039685 -1.11861777 0.98478276
Pu -7.73043001 1.15803514 -5.93414566
O 6.85683610 3.69290787 -4.95456340
O -6.46990574 -9.32500769 1.80319655
Pu -7.77735582 -5.03279857 1.30396994
O -2.56916298 0.00125834 -9.74766279
O 7.38200973 -5.47708919 -3.73892239
Pu -1.08682168 -10.41630175 -3.25164130
O 2.65672367 5.79589225 7.95574718
O 0.47190021 -0.22701035 -7.05497394
Pu 0.39537132 -8.34714830 -0.93200509
O 4.10041374 -3.49050863 -1.87241800
O 6.83544846 -5.01674410 5.56794454
Pu 0.83423261 5.75188889 -2.77433668
O 9.66493307 -6.17464370 2.38323990
O 0.69950957 1.33183803 -0.77020652
Pu -3.26230417 11.24901220 5.23184755
O -1.85432358 -8.84314643 -7.68994837
O -2.76905414 -3.02485979 -3.02937217
Pu 6.19121344 7.70194550 -0.36365043
O 3.72094577 0.47929576 -8.10356327
O -3.05818464 8.78665272 -6.70559992
Pu -0.22941702 -1.63912064 0.04376168
O -2.88681158 -9.22518530 2.15067175
O -0.82206853 -7.50034794 4.24043093
Pu 5.85430993 4.80273557 -6.22910614
O -1.19997668 3.33918486 -1.08589032
O -5.34317948 4.77048765 4.15040316
Pu -0.87077900 -4.69125300 -0.08285600
O 7.47289044 2.43163474 -6.91800725
O -2.29082786 6.37206537 3.67082193
Pu 5.06829516 -1.13184566 4.71698270
O -4.41850487 -3.28783763 -5.52727968
O -8.02808512 3.75978705 0.05392921
Pu -4.39551252 7.35983868 -6.45101790
O 3.70421303 2.91295697 7.40735044
O 1.35573691 7.22185566 6.36986123
Pu -7.28562017 -4.87135887 5.33543040
O 4.19948589 -8.82791144 -3.88286062
O -7.99342331 -1.08211085 -3.94058698
Pu 1.49558541 -1.27371389 7.43540422
O -5.51994998 5.60746857 -7.04099899
O 1.35564400 -6.27848300 -3.86155100
Pu -1.75085766 4.44812773 -4.96227659
O -8.89863845 -8.31725333 -0.60837121
O 2.88445602 5.09778671 -2.73848682
Pu -6.57206021 2.46243599 -1.53793351
O 7.84718919 7.90795549 -1.58898640
O -3.27098822 -4.26299435 7.91068864
Pu -5.09940504 -8.15803253 2.68713711
O -1.93588802 -10.58729940 -1.11565273
O -0.35240844 -3.13590815 8.67109130
Pu 10.94207180 -1.56670723 1.07727658
O 5.33208489 0.26648224 6.10218344
O -5.28314614 -9.87501202 -1.49080607
Pu 3.74273524 -4.61307594 -7.81015435
O -4.88979642 3.28759139 -3.25355136
O 5.12019271 -9.15099605 -1.45839224
Pu -5.10399952 -3.80635786 -3.71025381
O 1.71425669 -4.54218549 -9.18108526
O 8.78713163 -3.72422417 4.57864437
Pu 4.89122832 4.04854031 5.78144038
O 0.33578246 4.55045189 -4.32713822
O 3.35053916 -6.18586325 4.99302020
Pu -3.98049676 -5.10238528 3.88354770
O 7.04635750 2.44958536 -0.15229191
O 3.12751675 -9.82079995 0.05159108
Pu -0.01514800 -3.11462300 -8.14316800
O -1.46172727 11.04187009 5.83873810
O -6.84359945 5.64311255 1.43357953
Pu 8.46033110 1.27374750 -1.02645432
O -0.97005155 -4.69802030 10.80364504
O 9.99734452 -0.50619808 -0.39769669
Pu 0.43265292 -4.79524644 9.45471993
O -2.91905610 -5.90735232 -8.14377173
O -3.89098656 -1.23488444 5.39737374
Pu -3.20463984 -0.88729668 3.64886616
O -1.23436460 2.44918803 -4.16904878
O 2.03378590 -4.09035492 8.57817149
Pu 9.99710887 -4.37582011 3.20176935
O -0.38974472 4.93924586 4.15240177
O 5.13332178 6.31073702 6.13348117
Pu -3.71101419 -4.43043648 -6.96171656
O 3.10720096 5.04257759 -6.42066964
O 0.61919385 -10.18876808 -2.08648191
Pu -1.28735106 -1.12452644 -10.70680072
O -1.81419675 -7.35468747 -5.59275141
O 10.17114137 3.15825498 -0.85724388
