420
ML-kMC step 6000
Pu 1.59066137 5.50684393 4.24964401
O 2.35093038 0.24557550 7.50998598
O 4.68649744 -2.76420809 -3.95345924
Pu 2.14343535 3.48464097 -4.91619011
O -5.04541536 7.74035049 2.40265473
O 9.28621139 -2.20193301 -3.58489629
Pu -7.54552905 5.57388658 -0.58810571
O 3.17488873 -11.61934964 -1.94656431
O -6.86483144 -3.00753422 -4.91767053
Pu -3.87865128 3.74918957 -7.37049827
O 1.22944484 -6.49101460 6.03413311
O 4.72867586 7.05978535 8.12997190
Pu 4.98085969 -5.45815555 3.54370262
O 2.38053050 3.01560412 0.17626733
O 5.49415716 5.91616047 -4.38092785
Pu -1.42973283 5.40074197 6.32226310
O -5.72358029 0.75758549 -5.12715606
O -4.16825935 1.20061729 -1.41230692
Pu -5.27066619 4.91367728 -3.40385453
O 7.50408131 2.47541668 -2.57970592
O 3.61605768 -0.72363099 3.10554581
Pu 1.71703238 3.87027115 8.06403578
O -4.13234401 1.79240207 -7.80267184
O -6.14338791 6.92132329 -0.97273576
Pu 0.56834598 -5.21882919 -10.06663822
O 2.15268869 7.47777640 -2.47893062
O -5.23313992 3.13290222 7.44113288
Pu 5.87764542 -3.31045859 -1.21259658
O -1.40745222 2.68736502 2.03997502
O -0.21979538 3.49542695 7.39120754
Pu -0.59688718 6.82925407 1.41199081
O 4.12454286 -5.44546561 1.63191351
O 0.84469824 4.08461372 5.75574333
Pu -3.35543436 -0.30056267 -7.82843760
O 1.35011855 -6.09466981 -6.06852891
O 0.71849081 9.01226313 -4.83033653
Pu 0.36806227 3.16407969 0.74791068
O -1.69991368 4.10881398 -8.44487832
O 4.51725259 -3.22801668 3.92264429
Pu 0.15394759 3.72887626 -8.94306117
O -6.58355361 5.24445571 7.58815980
O 0.84337817 -1.38005285 -9.01042610
Pu -3.49550232 -7.25282311 -6.28184896
O -4.25503243 -5.40713512 -5.73643067
O -5.47650541 -5.33597086 4.07607989
Pu -0.75034384 -6.04167656 5.86602122
O 6.27419241 2.20391087 6.61167392
O 1.12986737 -11.22402379 0.71624744
Pu -3.23126206 7.82459936 7.64283574
O -1.97650100 2.06918643 4.84551992
O -9.18838932 5.52532268 0.51043609
Pu 5.04607309 0.90910774 -7.28397079
O 3.38615578 -6.09349775 7.61926666
O 0.43232028 7.02136673 3.44120503
Pu 4.32589206 0.74189426 7.35680506
O -3.85221175 -5.94833925 -3.11980643
O -9.10717553 -4.49478812 0.34578864
Pu 7.01047051 -2.50632239 1.90865218
O 1.74748309 3.74902015 2.59130484
O -0.68869966 7.12541940 -2.27750378
Pu 0.28917557 8.95644619 -2.40907623
O 4.89016632 8.45202591 0.91733312
O -5.86138693 -6.66323203 1.12764664
Pu -1.62416507 6.57152541 -8.14113093
O 4.21230567 6.56062061 0.02915235
O 3.87857767 1.97936172 -9.58085653
Pu 2.20939407 -7.50381605 4.47660690
O -4.46026706 2.51373619 2.39188568
O 1.45709758 9.50041446 -0.99391703
Pu 2.57762518 -4.71018786 6.36469618
O 2.87322163 -1.30671419 -9.97520947
O 0.17718219 -6.73987005 -8.93560419
Pu -8.83197606 4.92885036 4.91860770
O 9.35529408 0.51095718 1.79185215
O 4.49596948 -3.06686360 -7.89733068
Pu -1.00918783 -6.28470025 -3.65574704
O -8.43131258 6.87275349 4.12959943
O -6.99487755 5.24551732 -4.33572345
Pu 5.00434131 5.85216066 2.14369878
O 4.03680726 4.38204300 1.41333941
O -8.44459430 3.12216670 -5.36526484
Pu 11.13488118 2.89284921 -1.35856970
O 6.31464047 4.68037498 6.45949072
O -1.89672227 6.15803336 8.31894733
Pu 3.30881819 1.42351721 -0.95352858
O -0.32871986 -1.55462624 -5.72780191
O -5.77175172 -3.41594303 5.40132602
Pu -0.87227955 0.77821467 -5.63863038
O 3.63807795 5.16902832 4.03774843
O 3.19820993 7.71794247 -4.80755080
Pu -9.85395809 1.58781281 6.48867319
O -9.24642821 3.52298489 6.60469713
O 11.34883627 3.64763183 -3.13726542
Pu -9.50086443 3.76238885 1.23491446
O 5.57280469 5.77472253 -1.76794733
O -3.32495943 4.43055676 5.43880395
Pu -8.99439521 0.19872973 0.73502826
O -9.99364602 4.07186169 3.24192280
O 1.37546360 -8.64496786 -5.67126653
Pu -8.49410497 -5.28456457 -1.52497897
O -2.29694663 -0.28348120 -0.25459714
O 2.04289714 4.57447352 -9.17219978
Pu -1.89263800 -2.85226697 6.45981053
O 4.56330208 1.58466333 1.75804598
O -3.73538126 6.50506875 6.10658212
Pu -4.58156984 7.13278313 0.48117077
O -3.19320853 0.15357904 -5.57979568
O 6.36445880 4.84703800 3.56935009
Pu -0.66220359 8.29413428 4.41664323
O 0.28235307 4.26501816 9.42170291
O 7.95818668 2.36335556 2.74419454
Pu -5.74058528 -1.18615984 5.41370813
O 0.48699752 0.63108145 -10.50671490
O 4.63037371 3.24132251 -1.14689753
Pu 6.82756387 -1.01685500 -3.68320442
O 6.83762535 -5.22716001 -1.31178688
O -2.15128786 6.08461075 -6.22866517
Pu 1.75222962 -9.41312038 1.75423324
O 6.57261884 5.67789156 0.95048561
O 10.39000117 1.14562191 -2.25562340
Pu 9.40345128 3.28637578 1.54740262
O 6.74225975 -4.41688048 2.36788959
O -1.04997515 1.26875498 7.37661640
Pu -3.26208473 -1.33506891 -1.83302576
O -0.14777443 7.55083493 -6.88231160
O -0.39323306 -1.62750651 -11.85596495
Pu 1.61275037 7.18698274 -5.71729717
O -9.11457966 -4.85364771 -3.41155727
O -0.77123298 -11.72437620 -1.86150084
Pu 2.17702359 -2.65261268 -1.36350597
O -7.44626364 0.64524001 -0.80105845
O -4.56492813 -3.99985228 9.41520423
Pu 3.71632039 -9.76748978 -2.37286220
O 6.69723097 -4.44922594 -6.64797453
O -0.65611619 -4.67189520 -2.48077804
Pu 3.14561848 8.36425873 -0.02149106
O 8.50441297 0.03602659 -3.07453615
O 3.76660205 -5.99227541 -6.31321338
Pu 2.80195848 -7.34897603 -4.91617068
O -4.05923372 4.22395352 -5.19428044
O -9.51928207 -0.57071659 -1.06746608
Pu -3.12034956 7.51389603 -2.32868411
O -0.25100138 -5.27989270 1.89540306
O 5.11184209 5.01337590 -7.68386733
Pu 4.66056002 -7.47405985 0.26731022
O 0.99896088 1.71268484 -4.39497915
O -3.14607151 3.59269658 0.35530497
Pu -4.09268772 1.19924855 -3.93938694
O 1.71339456 -4.05896343 -11.22692438
O -5.41640779 -7.25239749 -1.41478243
Pu 6.91025899 -3.34014717 5.79543022
O -4.47288400 -1.84538997 -7.23727472
O 6.14127574 -1.60018867 6.25733697
Pu 6.63989217 6.60145848 7.28605211
O -0.73449901 4.92947773 0.73854644
O -7.91947336 1.67003964 7.22802253
Pu 7.62841887 3.48498381 7.36314002
O -2.39839668 -8.30574516 -3.49550608
O -2.35130527 -2.12280565 8.67306996
Pu 5.92329371 4.04164904 -2.49209870
O -10.11390940 1.90101947 0.94514572
O -1.21586696 -3.79013186 -6.43112274
Pu -0.55637473 -3.20109954 2.99544026
O 6.93536429 -1.26925832 3.84922058
O -4.14449114 5.58159539 -1.39915519
Pu 2.51444859 -2.25725803 2.58801384
O 3.65016919 8.65710166 5.77159491
O 4.82822725 0.05770374 -3.34823721
Pu 3.03112541 2.25360317 3.13908369
O 2.36371740 -2.87114832 -6.68160917
O 8.05266635 2.46860832 8.95191134
Pu 1.10061227 -11.92134047 -1.08565438
O -7.74943662 1.88422954 2.32813305
O -0.00172871 -8.52442592 1.13367239
Pu -6.59969914 -8.11121014 -0.08020615
O -7.11545232 -0.37342516 -6.71802950
O 2.72217439 -3.43434337 1.01093081
Pu 6.64394107 -2.36794933 -7.40697343
O -4.48360801 -8.34658105 -4.87489104
O 0.12761830 -2.36961479 -1.15568255
Pu 6.05924184 -6.96432300 -2.70673113
O 6.84564223 -7.33199463 0.14832038
O -7.81646287 -4.46517719 3.30335697
Pu 3.19956513 4.81249063 -0.48404025
O -10.31272943 -1.57016900 -3.99678518
O -5.83477983 -3.61793622 1.21895153
Pu 0.02932553 -7.60862184 -6.87655047
O 6.02203051 -1.84644313 0.38793008
O -5.69812478 0.95718657 5.18123679
Pu -5.46904850 -3.84125919 7.49122416
O -2.42375354 -6.10714806 0.03948611
O 1.49930847 2.34191611 -8.48624498
Pu 6.13517673 3.22763373 1.67040493
O -6.64113718 -1.93248285 7.35749824
O 4.82511833 7.45810072 3.19731633
Pu -3.36979218 1.49953853 0.50574797
O 1.23141738 5.04342855 -0.92940816
O 0.02308393 -3.34426336 0.69492073
Pu 8.18175301 0.52005151 3.51642622
O 4.79375263 2.97628667 3.72978687
O -0.19580199 6.65419489 -4.63976756
Pu -4.39313626 -5.71144469 -0.32413782
O 1.30238713 -3.59668846 3.42049400
O -6.41558511 4.27469865 -1.82230086
Pu -1.83706627 -0.26829598 8.56633423
O -6.09923620 -1.29829909 3.47156864
O 8.95624196 -0.17789180 5.27310405
Pu 1.94868180 -0.97769419 -7.17988129
O 6.79817885 0.53284336 -5.03948692
O 2.51161126 -9.23281281 3.56772348
Pu 8.00864222 2.11644188 -4.54276451
O -3.73351062 -6.02178556 1.94101468
O -0.14027097 5.82302700 -9.27922989
Pu 2.87217903 7.17023146 7.03261879
O 5.95960705 0.22183382 8.31938502
O -1.28373427 -0.98758824 2.35237500
Pu 8.84189338 -4.01788329 -2.73466675
O -2.33053532 5.51380580 -3.14675681
O -2.21564646 0.90248361 -2.10051083
Pu -5.26040077 4.90261122 5.88189701
O -6.39583751 -5.38713270 6.88684205
O 1.30772399 7.29405973 0.83173502
Pu 5.77012378 -4.16539308 -4.81733049
O -0.32785959 -1.64929211 6.10074807
O 0.28760985 -0.56116296 8.85554410
Pu 4.21608273 6.88684334 -3.21359491
O -2.93746032 3.51704571 7.41643019
O -6.54513617 -5.08262408 -0.78048534
Pu 2.27341434 0.74997048 -9.69730602
O 1.28677434 -1.04557627 1.40290010
O -7.28579182 0.87429973 -3.13975274
Pu -0.48621115 -2.63222707 -3.89789178
O 6.98785434 7.77066444 5.63026382
O 9.16609622 4.76662393 3.05927122
Pu 7.98859780 4.82328629 4.55925609
O 11.17601500 -1.38404064 -0.63545201
O -2.13208393 1.42355837 9.91310194
Pu 1.95231242 -5.53344870 1.30292066
O -0.14233699 -6.51719581 -0.74772599
O -9.83950308 -0.41693340 7.06877898
Pu -7.19688059 3.38949461 7.63324889
O 8.33616997 5.40076829 6.82731819
O 1.62434743 1.51505913 -2.08221185
Pu 10.27379720 -0.80648655 -2.47631457
O 1.43678390 -2.39195057 -3.42819558
O -4.78231703 0.28441032 1.35208673
Pu -7.31686785 -1.32426188 -1.72618675
O -4.90294414 -1.35692213 -3.62728189
O -1.69111445 3.21150928 -6.38579776
Pu -5.72832103 -1.54327438 1.36857894
O 4.59006978 -6.10493395 -1.51144498
O 8.24302749 2.86904407 5.50103662
Pu -9.53229283 0.24636166 -2.93405837
O 9.40192689 -5.02317238 -1.02567161
O 3.49761884 -0.74043686 -1.40933660
Pu -6.83635619 6.95796340 2.92109375
O -1.84790216 8.88746218 -3.46489604
O 2.34213009 -8.23833787 -2.08190494
Pu -2.51402537 -3.85893988 9.62819203
O -3.81444152 9.02762267 4.73920921
O 4.62601228 8.18474457 -1.62264647
Pu -8.85189400 -3.01881996 -4.21511749
O 11.27267834 2.86042788 0.65384304
O -9.40404690 1.40399356 4.46273157
Pu 3.64014399 3.73640715 -8.48334909
O -0.79296186 -5.41012741 7.82058982
O -3.57121212 -6.97854903 4.08737958
Pu -8.55001207 3.93713257 -3.48808972
O 2.58469239 -6.93587203 0.16591504
O 8.70140067 -1.79109491 2.55245753
Pu 1.39203823 -2.18088241 -11.00018747
O -4.22485746 7.04236975 -4.00782350
O -8.67051233 -3.84145291 5.85899064
Pu -1.48290740 3.14076315 9.20392918
O -4.16087429 -8.02331842 0.30562813
O -1.70011966 -1.90026098 -8.35392697
Pu -2.24357456 4.85920065 -1.01021067
O -1.93433202 9.49700540 3.37145295
O 4.06600622 3.99344864 -4.34246315
Pu -4.03666642 1.83487346 6.44331825
O -4.14702780 -3.80669432 -1.47826512
O -0.79604130 -0.64904478 -3.53029741
Pu -1.43324538 -7.07619126 2.13773454
O -1.66984042 -4.36301658 5.07446926
O -7.88775769 -0.57168033 5.12561448
Pu -0.33042418 2.28538610 5.80449376
O 0.55973290 -4.32987349 5.77358865
O 4.80379644 -7.60693274 2.24853127
Pu 3.30898417 -1.26551923 -4.06929485
O -7.18238998 3.09573416 5.23728168
O -5.36007532 -1.27817663 -0.95889786
Pu 7.46378402 0.12246535 6.66662420
O -4.31617943 5.50981137 1.51819463
O 4.90078244 -5.85742647 -4.05579487
Pu -7.42401134 1.06961565 4.26308826
O 1.34221103 1.06440729 4.02414804
O 6.11585429 -0.61503782 -8.09417541
Pu -8.73026175 -1.92297373 6.51833588
O -9.03289233 4.63030610 -1.73604250
O 8.39836805 -3.10129312 0.27651873
Pu 2.53339734 -6.04362449 -1.79609067
O 10.98725343 -2.94562894 1.96678771
O 6.76949888 -2.10263427 -5.38167782
Pu -1.31186618 8.28199281 -5.35947827
O 7.18810420 -2.68708985 -2.55028011
O -9.34675505 2.32766087 -2.58491917
Pu -4.08129230 7.18221548 4.02335252
O -1.49275821 7.38081989 6.13238865
O -0.31098393 -3.32002186 -9.76893174
Pu -5.67138974 -1.41798187 -5.40964020
O 3.35348011 -0.47739102 -5.85901288
O -3.72222234 0.15873181 7.53972645
Pu -3.06643038 -9.62780675 0.30353254
O -3.56400777 6.02510170 -8.13119912
O -8.08631861 -3.08718411 -1.98365424
Pu -4.49440143 -8.11622400 -2.91746383
O 1.70288853 -4.49702402 -1.03357956
O -2.10098419 7.11467075 0.20661772
Pu -6.38219529 3.74705305 2.33908410
O -0.25025687 -8.08717740 -2.83505510
O -5.89365210 6.64646203 4.73192783
Pu 7.98285273 -5.58061480 0.39417260
O 4.10614496 2.80965037 -6.67069138
O -3.38722021 9.76349610 7.30563934
Pu -0.35677272 1.56641439 -2.56546257
O -2.59657828 -3.53926097 2.79666539
O 3.45011616 -1.36326269 6.10781759
Pu 5.29021416 8.49760235 4.72127304
O -7.44659828 4.74619237 3.57816198
O -3.90605173 8.41375096 -0.79229771
Pu -2.82776777 4.13388900 2.79853339
O 1.70896673 -7.15153957 2.55060449
O -7.64440606 -1.17622539 0.88131349
Pu -7.37906290 1.52012946 -5.99464518
O 6.75175062 3.78330820 -4.34289343
O -6.24316120 -8.92421728 1.68922831
Pu -7.34416802 -4.80192182 1.39139391
O -2.33560618 0.53191843 -9.29760184
O 7.38660479 -5.18220781 -3.82414620
Pu -0.94157362 -9.92764854 -3.04090871
O 2.71123909 5.20301970 6.82390763
O 0.32533736 0.29026924 -7.16209007
Pu 0.49520980 -8.34393279 -0.86773839
O 3.98600491 -3.55276037 -1.71814016
O 6.02075409 -5.06572796 5.29146704
Pu 0.81158073 5.85008028 -2.72145224
O 8.98844929 -5.68549438 2.17686714
O 0.08453574 1.15041420 0.30949191
Pu -2.91396508 10.72821210 5.14071358
O -2.06395301 -8.42107213 -7.01849632
O -2.76063455 -2.90311744 -2.91600369
Pu 6.24791680 7.25020034 -0.59567180
O 3.11641150 0.46568054 -7.89501938
O -3.25822350 8.34727923 -6.13124370
Pu -0.34397129 -0.86001497 0.09906298
O -2.56047132 -8.79876651 2.08252879
O -0.61504404 -7.31168302 4.20383230
Pu 5.67175427 4.43538043 -5.87413543
O -0.81452587 3.39643504 -1.18345450
O -5.06387734 4.65180152 3.91728289
Pu -0.87703070 -4.77481697 -0.40463303
O 6.82864544 2.30953427 -6.34671046
O -2.37826855 6.43411326 3.48886023
Pu 4.88118905 -1.12244701 4.50142383
O -4.18331396 -2.89466468 -5.13690305
O -7.32328889 3.51384629 0.23717266
Pu -4.59934737 6.73680122 -6.15234866
O 3.60412736 3.00780531 7.31154822
O 1.23440072 7.14509121 5.69575111
Pu -7.17162603 -4.97615597 5.03014952
O 4.33154448 -8.33166371 -3.83945781
O -8.07222308 -1.11346705 -3.91889958
Pu 1.36301782 -1.60775325 7.63942989
O -5.43585300 5.08446234 -6.87895610
O 1.60599342 -6.27998396 -3.66820557
Pu -1.84896693 4.48802609 -4.95245429
O -8.18421802 -7.28331257 -0.89333921
O 2.86260208 5.14344418 -2.49921564
Pu -6.20599119 2.33594308 -1.29417752
O 7.95206268 7.78225105 -1.30043215
O -3.26046430 -3.97825655 7.52194481
Pu -4.66858591 -7.70310265 2.67282798
O -1.44830669 -9.43827622 -0.74620420
O -0.27594202 -3.24711186 8.22339436
Pu 10.16416628 -1.31326972 1.15623884
O 5.57480392 0.44150807 5.66453236
O -4.28245316 -9.77655605 -1.38940920
Pu 3.05959472 -4.56426168 -7.35082700
O -4.90346371 3.06182008 -3.01268367
O 5.39569776 -8.69801230 -1.69618322
Pu -4.95375008 -4.02131089 -3.59554784
O 1.46610239 -4.10599812 -8.62317611
O 8.66405960 -3.61157364 4.90345373
Pu 4.70769689 4.22056834 5.39847600
O 0.36379792 4.54205341 -4.28602638
O 3.59070296 -5.86315223 4.86793310
Pu -3.61035619 -4.97911710 3.75590628
O 7.24216418 2.44129505 0.28320447
O 2.72423643 -9.25140484 -0.27377384
Pu -0.02388163 -2.91120988 -7.79753141
O -0.83582557 9.96623409 5.65492735
O -6.68447206 5.68521173 1.35333545
Pu 8.03055823 1.09128323 -1.02404167
O -0.75449801 -4.89567909 10.28929992
O 9.06327615 -0.49991114 -0.35437453
Pu 0.78274973 -4.78249265 9.03107008
O -3.04291413 -5.54170151 -7.75143010
O -3.70760775 -1.71506190 5.51944373
Pu -1.09952757 0.92195431 3.26248185
O -1.81825553 2.49036898 -4.20310752
O 2.27829943 -3.41900550 8.08138678
Pu 9.63429200 -4.06479524 3.12668784
O -0.92041329 4.28981236 4.33506171
O 4.64247306 6.21551878 5.78574839
Pu -3.38548379 -3.92376860 -6.69702479
O 1.95610501 5.11067869 -6.06680031
O 1.04993018 -10.16232587 -2.02056872
Pu -1.11456299 -0.88412174 -10.21774361
O -1.37014046 -6.76562430 -5.55449564
O 9.30541739 2.63574571 -0.54224384
