420
ML-kMC step 2000
Pu 1.44517084 5.58144684 4.34018631
O 2.44576558 0.37090806 7.40316955
O 4.75583747 -2.77146570 -3.74037118
Pu 2.30678143 3.65711567 -4.94432443
O -5.11360108 7.85078743 2.53050265
O 9.62988380 -2.34336749 -3.22390867
Pu -7.79072199 5.54811300 -0.46439452
O 3.09778695 -11.76112249 -2.12734562
O -6.76625009 -3.00169338 -4.82095836
Pu -3.89510992 3.71423525 -7.45533568
O 1.20686374 -6.57668392 5.80231982
O 4.79436678 7.04033375 8.10416585
Pu 5.22296347 -5.58636575 3.64089086
O 2.34090419 2.80678322 0.18505939
O 5.61550496 6.05833348 -4.56282156
Pu -1.44733202 5.51219988 6.32566568
O -5.93661712 0.70931182 -5.01094541
O -4.21737185 1.18042695 -1.38957573
Pu -5.34822199 5.10365200 -3.44747246
O 7.46362201 2.59201140 -2.56342084
O 3.84666104 -0.71921842 3.03722398
Pu 1.68901404 3.93158219 7.99312228
O -4.34577196 1.79832650 -8.07724305
O -6.09778515 7.02175280 -0.91580222
Pu 0.58076133 -5.41018602 -10.18897467
O 2.12606779 7.46667764 -2.57859151
O -5.44919505 2.91522419 7.42539794
Pu 5.89541897 -3.28975079 -1.21174229
O -1.36724064 2.87412712 1.94070591
O -0.24679226 3.62681764 7.54002734
Pu -0.54583026 6.90793470 1.45436163
O 4.34252632 -5.40679820 1.92029332
O 0.74182884 4.21335118 5.66310569
Pu -3.51106291 -0.27714985 -8.13408002
O 1.20844883 -6.09727675 -5.97877147
O 0.50463189 9.09132779 -4.65154654
Pu 0.28147855 3.11679851 0.66923794
O -1.73237063 4.14886516 -8.51278500
O 4.70939867 -3.16288051 3.98268745
Pu 0.30607316 3.96916803 -9.16363095
O -6.52119562 5.32162521 7.33416993
O 0.90176658 -1.44421246 -9.30056450
Pu -3.44024706 -7.65527991 -6.33518271
O -4.53360154 -5.80189368 -5.96200156
O -5.63673830 -5.53366817 4.20177559
Pu -0.78067461 -6.14425760 5.94251896
O 6.10788434 2.44531592 6.44949494
O 1.06043730 -11.40877179 0.65119545
Pu -2.96005930 8.01286081 7.50310383
O -2.09312439 2.20448649 4.94908081
O -9.61455848 5.96669310 0.46630045
Pu 5.23108601 0.99208149 -7.60175615
O 3.46005685 -6.05540148 7.78715318
O 0.38380134 7.19977796 3.40114994
Pu 4.49716347 0.85345380 7.42133611
O -3.87633595 -5.84739998 -3.40516083
O -9.18756563 -4.77391513 0.30328783
Pu 7.33720230 -2.60066197 1.78899278
O 1.66401241 3.89795679 3.17564530
O -0.87153542 7.17906062 -2.36942901
Pu 0.33001348 8.91797804 -2.67503404
O 4.74989136 8.21166008 1.08240225
O -5.88770715 -6.61623442 1.18521618
Pu -1.66956887 6.60120635 -8.21224567
O 4.00361589 6.52324891 -0.24079278
O 4.26586104 1.91572811 -9.46866820
Pu 2.27052654 -7.79911359 4.50130600
O -4.53350504 2.51945204 2.30681920
O 1.63649248 9.33423478 -0.89255931
Pu 2.63323916 -4.84596412 6.51136586
O 2.91076787 -1.21101733 -10.14380129
O 0.67896800 -7.12018384 -8.86996617
Pu -8.90737304 4.86961905 5.08352015
O 9.34529783 0.25033834 1.63081908
O 4.62736085 -3.30775557 -8.05262302
Pu -0.84351362 -6.51306573 -3.84376470
O -8.43570879 6.87537175 4.44718335
O -7.09482699 5.03684895 -4.38644311
Pu 5.01703828 5.86149797 2.14303713
O 4.03435821 4.34334003 1.39973123
O -8.49976970 2.91574345 -5.34070560
Pu 11.37344837 2.77555713 -1.51824290
O 6.30932866 4.69275725 6.51113881
O -2.14737199 5.94331044 8.23213339
Pu 3.53392344 1.15831030 -0.76220983
O -0.01551950 -1.60041440 -5.40951679
O -5.62823490 -3.23489748 5.86288684
Pu -0.94597022 0.90364173 -5.80536956
O 3.65982901 5.35533721 3.77902169
O 2.87460749 7.18794363 -4.65724648
Pu -10.27931795 1.71102353 6.20341695
O -9.67083961 3.74854891 6.50451624
O 11.72974726 3.73540206 -3.13442137
Pu -9.75326927 3.90822414 1.22749617
O 5.51164016 5.94517404 -1.71777639
O -3.13176046 4.63756933 5.69774917
Pu -9.05108724 0.43659442 0.62192816
O -10.09004159 4.12534140 3.14951877
O 1.65030321 -8.68117793 -5.79943442
Pu -9.18920469 -5.57752498 -1.49519098
O -2.24757914 -0.28490757 -0.26826600
O 2.15441795 4.57977752 -9.50132240
Pu -1.60975083 -3.04070318 6.88821247
O 4.60185624 1.77422034 1.88176382
O -3.73835940 6.64269134 6.23201876
Pu -4.54106551 7.25372993 0.39069272
O -3.44090499 0.43604283 -5.60127984
O 6.40155496 4.72107828 3.65770015
Pu -0.55986590 8.72702364 4.37303039
O 0.32308920 4.18033244 9.50771569
O 7.99991197 2.59757816 2.43457394
Pu -5.72817784 -1.06007790 5.42300395
O 0.23170863 0.26813537 -10.67062991
O 4.68833113 3.24768340 -1.07077916
Pu 6.90631795 -1.01157218 -3.77769792
O 6.68492450 -5.24176993 -1.46793293
O -2.17577019 6.07426375 -6.27482512
Pu 1.63086518 -9.78441778 1.74605385
O 6.28496225 5.25939724 0.64753504
O 10.26346825 1.17837728 -2.32919146
Pu 9.59764560 3.34963363 1.33096370
O 7.02238632 -4.40283628 2.45633859
O -1.12002657 1.28117043 7.35586701
Pu -3.29670717 -1.43106095 -1.82668720
O -0.12273126 7.59328958 -7.00575584
O -0.39866453 -1.85357537 -11.95012364
Pu 1.66181675 7.19037696 -6.18932241
O -9.48061952 -4.91458658 -3.42493938
O -0.54150906 -12.04771673 -2.65989325
Pu 2.18761249 -2.61840866 -1.38468435
O -7.27501419 0.44875483 -0.74074656
O -4.54702548 -4.50551961 9.46002368
Pu 3.52285304 -9.79066950 -2.34438194
O 6.72923544 -4.25393006 -6.51208967
O -0.43668145 -4.86539782 -2.25457282
Pu 3.13651016 8.28542082 -0.07130219
O 8.36004103 0.14467397 -2.91428743
O 3.79131981 -6.17766477 -6.41493175
Pu 2.91576410 -7.35935495 -4.79765565
O -4.16623511 4.00569578 -5.41798903
O -9.50314393 -0.41200296 -1.12425920
Pu -3.15788129 7.69110689 -2.51192331
O -0.52913098 -5.13088003 2.06035060
O 4.87860563 5.09206055 -7.77807971
Pu 4.79144305 -7.89588796 0.23957753
O 0.99302909 1.67526174 -4.50958129
O -3.19552983 3.46955770 0.34699412
Pu -4.27898211 0.94198373 -3.92704342
O 1.65638838 -4.20797398 -11.41059071
O -5.60480928 -7.41498461 -1.51982227
Pu 7.16449884 -3.13003639 5.79454389
O -4.54821917 -1.69332985 -7.16330468
O 6.31777597 -1.48398776 6.55490568
Pu 6.40664562 6.54572213 7.14423505
O -0.76700335 4.95137781 0.97310506
O -8.29332074 1.84185863 7.22241816
Pu 7.65221338 3.64839679 7.50522876
O -2.33707819 -8.56182731 -3.49994969
O -2.50530450 -2.12740848 8.98321313
Pu 5.97800989 4.03625965 -2.54761724
O -10.24750671 1.98248425 0.97525749
O -1.02380731 -4.00699157 -6.52700132
Pu -0.58427189 -3.13635851 2.99196005
O 7.03361459 -0.93883542 4.09578004
O -4.16159136 5.88352094 -1.54770505
Pu 2.55332694 -2.35466038 2.37643556
O 3.53440479 8.68307080 5.60518001
O 5.23237418 0.05275484 -2.90277636
Pu 3.09016096 2.09712282 3.18391735
O 2.50360808 -2.95477735 -7.07453774
O 8.06151521 2.69171283 9.10088875
Pu 1.23034413 -12.10544042 -1.23544900
O -7.55024267 2.07208168 2.42465166
O -0.08060915 -8.82544415 1.19228232
Pu -6.78909570 -8.26713899 -0.12164081
O -7.36491374 -0.49518278 -6.75815143
O 3.01126903 -3.82195083 1.04322072
Pu 6.68037107 -2.45191212 -7.30593220
O -4.49947775 -8.50823435 -4.85209951
O 0.01549814 -2.30344464 -1.17862136
Pu 5.97727792 -7.17423246 -2.76892404
O 6.80528720 -7.20414029 -0.07179882
O -7.92768202 -4.64076133 3.34119189
Pu 3.19526555 4.79152789 -0.58729711
O -10.39292070 -1.54983313 -4.12293018
O -5.97515740 -3.66738102 1.13314619
Pu 0.22417764 -7.44432087 -6.94486622
O 6.22963159 -1.81112087 0.42936650
O -5.68563149 1.00943510 5.13138326
Pu -5.32654436 -3.93319293 7.75552600
O -2.35988684 -6.41539011 0.19062486
O 1.59611392 2.55532396 -8.76850720
Pu 6.11262775 3.25918994 1.65802009
O -6.71434926 -1.81695390 7.25799132
O 4.86248505 7.50046375 3.18022472
Pu -3.53356462 1.59218988 0.51190738
O 1.31231456 5.19378464 -0.92865569
O 0.19046905 -3.40135671 0.95372702
Pu 8.41055653 0.61294737 3.54076901
O 4.81480599 2.93009300 4.00669150
O -0.13392977 6.71020403 -4.88706543
Pu -4.50702206 -5.77704617 -0.44281120
O 1.17455166 -3.73915236 3.38505766
O -6.55179964 4.32289565 -1.70917795
Pu -1.80174501 -0.13881344 8.72730872
O -6.10376149 -1.34507624 3.42550427
O 9.18814754 0.48627602 5.32492930
Pu 2.05548748 -0.94567829 -7.27898470
O 6.76517012 0.33981838 -5.34901668
O 2.49994767 -9.66626639 3.62243548
Pu 8.01916579 2.20475509 -4.59259771
O -3.56463797 -6.40575228 2.15287297
O -0.12946036 5.88481996 -9.12063591
Pu 3.04334609 7.32494675 7.06410252
O 6.22261995 0.64484508 8.37528162
O -1.63236199 -0.91666280 1.94291274
Pu 8.64234635 -4.26497277 -2.82378036
O -2.50713810 5.56900317 -3.05418640
O -2.20331157 0.85107657 -2.16280535
Pu -5.06307686 5.01954102 6.06223802
O -6.55254980 -5.42042951 7.08249750
O 1.26218497 7.59605732 0.97770544
Pu 5.75268116 -4.20559655 -4.63224287
O -0.32186777 -1.73458838 6.10872256
O 0.16733721 -0.48098328 9.16929755
Pu 4.28888539 7.01406180 -3.28735144
O -2.83866579 3.31566674 7.71574858
O -6.76790724 -5.62819847 -0.81825238
Pu 2.02973296 0.62244969 -9.71147119
O 1.38450002 -1.01968943 1.25998684
O -7.43748924 0.86622558 -3.09295321
Pu -0.60654499 -2.59466715 -3.73822321
O 7.14097335 7.74546736 5.61646063
O 9.28669774 4.73620435 3.00427137
Pu 8.12779315 4.77449295 4.54403607
O 11.36324551 -1.45382530 -0.61141313
O -2.26953976 1.50434482 9.88779733
Pu 2.29432877 -5.73910213 1.56147571
O -0.14249688 -6.54705144 -0.79317546
O -10.01047970 -0.20086674 6.75308177
Pu -7.25083267 3.53648938 7.79756353
O 8.21704559 5.78634954 7.04331897
O 1.91914393 1.14032623 -2.18252384
Pu 10.38206836 -0.87554711 -2.22210840
O 1.34210455 -2.31045059 -3.45009799
O -4.76778405 0.12762989 1.30401961
Pu -7.42475610 -1.37128067 -1.76298464
O -4.94321868 -1.47442679 -3.64987782
O -2.17040560 3.04987328 -6.41395783
Pu -5.87065515 -1.64402363 1.55769801
O 4.48458467 -6.06902886 -1.65889355
O 8.42882653 3.10498954 5.55389928
Pu -9.67258319 0.20029325 -3.09008033
O 9.20947335 -5.09112599 -1.07172847
O 3.51694382 -1.20394025 -1.36124267
Pu -6.91785003 6.92989503 3.11836569
O -1.91128952 8.96639106 -3.51957490
O 1.96039685 -8.42266298 -2.29473992
Pu -2.63826542 -3.99033517 9.72643455
O -3.59483505 9.04594456 4.79160422
O 4.55387170 8.34191618 -1.55910868
Pu -8.75256718 -3.24894127 -4.11515790
O 11.34298399 2.69235361 0.70674326
O -9.40891426 1.53685780 4.50962625
Pu 3.59019557 3.77250898 -8.53986410
O -0.72599787 -5.31571619 7.85714991
O -4.13925860 -7.08783691 4.20415313
Pu -8.58003262 3.99328224 -3.51557204
O 2.78458304 -7.11077852 0.15574014
O 8.98266881 -2.12527387 2.78077663
Pu 1.58609985 -2.16742022 -11.21453818
O -4.42484131 7.30439519 -4.24610295
O -8.71379891 -3.81474785 5.88667525
Pu -1.57463655 3.14454303 9.22499378
O -4.19250977 -8.08353765 0.27833841
O -1.80190033 -1.83848907 -8.39717202
Pu -2.39631626 4.86685652 -0.95648271
O -1.98189549 9.74615928 3.36865631
O 4.26823651 4.15827812 -4.38341015
Pu -4.12423652 1.83919360 6.53487054
O -4.13601728 -3.88194364 -1.46578704
O -0.81825282 -0.64129253 -3.53787982
Pu -1.44235788 -7.24136600 1.99548054
O -1.50233769 -4.44931287 5.23337628
O -7.81302425 -0.59976097 5.09955588
Pu -0.41375941 2.50000570 5.95755002
O 0.86443536 -4.02267437 5.93832732
O 4.65178282 -7.62208083 2.20648383
Pu 3.28202669 -0.97489319 -3.91168842
O -7.44196988 3.37763553 5.51140514
O -5.60742393 -1.44610651 -0.83494845
Pu 7.54404813 0.41306342 6.75608551
O -4.32894292 5.56865963 1.58345703
O 4.97618892 -6.08229662 -4.13364349
Pu -7.50069854 1.19336391 4.30544782
O 1.42833425 1.15823610 4.19185051
O 6.25358874 -0.63595488 -7.85455913
Pu -8.68450165 -1.80516823 6.45315981
O -9.07808123 5.01150650 -1.83390687
O 8.70580804 -3.50347699 0.66267847
Pu 2.49954971 -6.04971414 -1.84129990
O 11.30489664 -3.06803870 2.03805598
O 6.85700119 -2.38383440 -5.28842186
Pu -1.38484649 8.21729628 -5.45009026
O 7.25810082 -2.79143178 -2.45058164
O -9.41550668 2.23849419 -2.64144913
Pu -4.02072140 7.23763625 4.26214650
O -1.43845277 7.66131173 6.15444590
O -0.24322120 -3.39242271 -9.92135436
Pu -5.88148346 -1.49364389 -5.74046975
O 3.30483718 -0.44582617 -5.77852101
O -3.68947937 0.05922279 7.79651043
Pu -3.09844203 -9.72657874 0.41035733
O -3.60772001 6.62360559 -8.37389460
O -8.29011813 -3.15508571 -2.09680168
Pu -4.29400205 -8.09563229 -2.95972289
O 1.70247478 -4.50119030 -1.03832681
O -2.25043998 7.04470550 0.20723136
Pu -6.44159585 3.82265269 2.39001462
O -0.21454778 -8.11055560 -2.81816621
O -5.81178681 6.83733949 4.94351193
Pu 8.22823932 -5.65297786 0.53114480
O 4.28914476 2.66172369 -6.82669015
O -3.62980132 9.89982180 7.11785764
Pu -0.29453494 1.55149283 -2.52719448
O -2.45369828 -3.51902036 2.86650942
O 3.55891374 -1.27757666 5.85146081
Pu 5.47186998 8.53418228 4.67545976
O -7.87669862 4.91802549 3.42330376
O -3.87205234 8.72057145 -0.92355334
Pu -2.75159630 4.26612024 2.90805569
O 1.78734169 -7.46362754 2.65580826
O -8.04842417 -1.13006512 1.05210656
Pu -7.61723030 1.20917343 -5.78587363
O 6.71487702 3.69890445 -4.46430703
O -6.41580503 -9.19775293 1.77187656
Pu -7.50821559 -4.95433017 1.41064267
O -2.50363282 0.31430510 -9.70837062
O 7.36195284 -5.45233409 -3.94243559
Pu -0.95722907 -10.07532731 -3.14458245
O 2.68866771 5.43023371 7.11827539
O 0.29940575 0.12105843 -7.14227765
Pu 0.41443810 -8.39964548 -0.82090948
O 4.10892211 -3.51784709 -1.84901256
O 6.30340864 -4.77353739 5.16608668
Pu 0.90183812 5.91310738 -2.92146221
O 9.24121207 -5.68201081 2.35248601
O 0.32978903 1.04233039 0.15021540
Pu -2.85136000 10.80397008 5.34798728
O -1.75077458 -8.34407212 -7.32478039
O -2.75954095 -2.90322925 -2.91477351
Pu 6.16433884 7.40173195 -0.45781944
O 3.12251021 0.52815393 -8.01221752
O -3.02218227 8.24100030 -6.51458869
Pu -0.32060794 -0.86948665 0.10061310
O -2.50968074 -8.96296730 2.10175609
O -0.72449134 -7.08491712 4.06730704
Pu 5.68305288 4.54190168 -5.94274491
O -1.16156987 3.25023341 -1.04086674
O -5.02287627 4.67674932 4.04196394
Pu -0.82587898 -4.50117010 -0.24686068
O 7.15278639 2.28033759 -6.53419142
O -2.33930544 6.47804981 3.52987164
Pu 5.00874601 -0.88980332 4.56554984
O -4.33648570 -3.11116117 -5.22702117
O -7.60582271 3.61689980 0.26066364
Pu -4.49707195 6.90820953 -6.24940898
O 3.47553996 3.02170073 7.31411390
O 1.09412984 6.80375926 6.05177785
Pu -7.27982012 -4.92592545 5.29280507
O 4.24565601 -8.24669590 -3.49341272
O -8.21493551 -1.11622200 -3.92820156
Pu 1.39970402 -1.49467841 7.47999230
O -5.42575197 5.12288276 -6.85791814
O 1.54751400 -6.28578611 -3.61625625
Pu -1.79835612 4.48032365 -4.96291945
O -8.45110876 -7.66073098 -0.88738664
O 2.84009771 5.16568787 -2.71905517
Pu -6.29611074 2.12120958 -1.40912806
O 7.79965253 7.82535964 -1.43747494
O -3.27495178 -3.91931785 7.44198313
Pu -4.87078828 -7.92551607 2.63119805
O -1.51322567 -9.57276437 -0.67134983
O -0.27135868 -2.99275959 8.41550030
Pu 10.51809744 -1.37674367 1.18339192
O 5.49366235 0.51247969 5.79670504
O -4.64653887 -9.79392259 -1.40911734
Pu 3.17060650 -4.68450242 -7.62243924
O -4.98791742 3.12261396 -3.15847760
O 5.38817047 -8.81961315 -1.68905659
Pu -5.12425746 -4.03095599 -3.49288261
O 1.66475796 -4.40705450 -8.92527831
O 9.18308257 -3.68932254 5.03809973
Pu 4.65819005 4.23497742 5.39152115
O 0.37747459 4.56343139 -4.31630045
O 3.64870230 -6.04055489 4.88234533
Pu -3.56706493 -5.05803622 3.82059169
O 7.06003038 2.59320903 -0.14478745
O 2.85792566 -9.60757182 -0.06517239
Pu -0.03852148 -3.02760500 -7.90018600
O -0.93444483 10.28344007 5.62589796
O -6.98941737 5.63087053 1.26916429
Pu 8.15288634 1.08200064 -0.98255200
O -1.05480858 -4.76636743 10.64970229
O 9.08217692 -0.73386192 -0.37797432
Pu 0.52500183 -4.70011163 9.29884520
O -3.04553924 -5.39150118 -8.16197964
O -3.57060525 -1.23959775 5.53306739
Pu -1.21391945 0.76225056 3.05970564
O -1.42374840 2.50081798 -4.16640735
O 2.01800460 -3.50962746 8.20766193
Pu 9.93194509 -4.09183168 3.27118453
O -1.05958621 4.40192687 4.39812539
O 4.66782807 6.21893852 5.98135856
Pu -3.30956957 -4.32874218 -6.60462685
O 2.19978640 5.21935467 -6.21594338
O 0.80301814 -10.26290345 -2.01413888
Pu -1.24233241 -1.05862219 -10.34524545
O -1.57095717 -6.91324371 -5.64625588
O 9.51071484 2.77784853 -0.56978494
