420
ML-kMC step 9000
Pu 1.65740569 5.42777190 4.08435712
O 2.14657721 0.82006274 6.72275032
O 4.67784018 -2.85362624 -3.99701071
Pu 2.17522255 3.32971094 -4.82092829
O -5.13294499 8.05010641 2.30317721
O 9.12662394 -2.26843878 -3.52054237
Pu -7.43139642 5.55347654 -0.46684673
O 3.09351810 -11.57841352 -1.94389870
O -6.82385145 -3.15781011 -4.92748412
Pu -3.70673683 3.63121685 -7.35324288
O 1.17052057 -6.54859596 5.95394911
O 4.78882193 6.78338213 8.22909960
Pu 4.95653963 -5.50522265 3.51466162
O 2.36382352 2.91124244 0.28983935
O 5.37817922 5.92223393 -4.59788874
Pu -1.48560120 5.27933059 6.01485643
O -5.64883819 0.99313538 -5.06568021
O -4.28101347 1.21335037 -1.40468743
Pu -5.24199654 4.90043474 -3.32716343
O 7.45655791 2.54905167 -2.59746762
O 3.47375206 -0.59875190 3.05662378
Pu 1.83238649 3.83590362 7.81297765
O -3.96093667 1.64045796 -7.61782053
O -5.99832394 7.04113572 -1.03644220
Pu 0.45841036 -5.17641362 -10.09173292
O 2.13544311 7.26722679 -2.48609827
O -5.28442549 3.19373959 7.50768092
Pu 5.84730861 -3.34831610 -1.12214891
O -1.37087967 2.60447783 2.09885854
O -0.19467217 3.50659718 7.34801285
Pu -0.54433998 6.99060098 1.48155584
O 4.05424804 -5.36745226 1.71860038
O 0.71954852 4.24291945 5.59453104
Pu -3.32318113 -0.29803697 -7.81272305
O 1.47014494 -6.01263770 -6.09507229
O 0.68624273 8.73752521 -4.73800870
Pu 0.27190709 3.18267479 0.68297129
O -1.70296199 4.01556730 -8.29528367
O 4.59338773 -3.44174043 4.10012857
Pu 0.15333171 3.66683001 -8.87460681
O -7.00539431 5.17099285 6.94483968
O 0.76377017 -1.25336345 -8.97708816
Pu -3.53880997 -7.23911032 -6.19100334
O -4.14686957 -5.33333970 -5.55479235
O -5.44522062 -5.33282288 4.10457577
Pu -0.94401123 -5.94889657 5.81198375
O 6.26406583 2.21711921 6.44062877
O 0.84266272 -10.77211059 0.55551753
Pu -3.06600354 7.76854248 7.34616323
O -1.92984349 1.94574979 4.75219332
O -8.94759657 5.66271151 0.78281230
Pu 5.00869201 0.92549538 -7.11431276
O 3.05951906 -5.78977433 7.68074210
O 0.38450263 6.82301566 3.43755550
Pu 4.29175866 0.85180643 7.15473608
O -3.67898043 -5.77328216 -3.04727430
O -8.89904097 -4.31982698 0.29113009
Pu 6.90273350 -2.45731590 2.06800250
O 1.56895616 3.85318413 2.74686698
O -0.69809931 7.01080168 -2.23999273
Pu 0.42282418 8.96250690 -2.60467723
O 4.86832222 8.37292200 0.71647617
O -6.01822852 -6.54654601 1.11145801
Pu -1.62613213 6.62598384 -8.15874968
O 4.09325259 6.46688468 0.04690454
O 3.84959291 2.03408226 -9.43330066
Pu 2.13576042 -7.38279656 4.36904128
O -4.46799217 2.60423157 2.59070755
O 1.56943950 9.33330958 -0.98892137
Pu 2.50969522 -4.70379345 6.21375912
O 2.93647749 -1.00671508 -10.24563350
O 0.25961304 -6.76283091 -8.73470075
Pu -8.89760888 4.76753128 4.85721953
O 9.46537571 0.57929417 1.76420999
O 4.43968552 -2.94551593 -7.70499710
Pu -0.93213155 -6.29153176 -3.58126109
O -8.64051812 6.61392465 3.81574120
O -6.97405719 5.35364604 -4.14267579
Pu 4.98886551 5.83047521 2.21622293
O 3.95851282 4.34425799 1.40192313
O -8.35675708 3.18629261 -5.47922774
Pu 11.15732910 2.79833682 -1.26568016
O 6.54642634 4.65252955 6.28683590
O -1.95429555 5.81801224 7.97402857
Pu 3.30380666 1.44218677 -0.92523158
O -0.54609712 -1.35971736 -5.74358885
O -5.60789824 -3.27892632 5.24926603
Pu -0.88718834 0.80910072 -5.73683418
O 3.56218048 5.27089920 4.05718670
O 3.14709248 7.46814290 -4.77806422
Pu -9.79162717 1.41581632 6.61335311
O -9.15732199 3.50381083 6.86281727
O 11.29482210 3.54373208 -3.03476811
Pu -9.48018304 3.70186325 1.31069466
O 5.43274201 5.83949383 -1.82766460
O -3.40065950 4.20642906 5.43253393
Pu -9.09315873 0.17055084 0.70967788
O -10.04824072 4.01887829 3.12793060
O 1.56070135 -8.59970151 -5.93580799
Pu -8.44429789 -5.19975812 -1.60293009
O -2.32543921 -0.26399472 -0.17296836
O 1.85647295 4.69565337 -9.21031892
Pu -1.88895409 -2.81368299 6.37863625
O 4.46331496 1.53876705 1.59211188
O -3.95086555 6.45670100 6.13288235
Pu -4.59218203 7.18424670 0.52207467
O -3.08530585 0.19706028 -5.64741577
O 6.07474193 4.70320022 3.49433207
Pu -0.56214610 8.27824410 4.41999763
O 0.37719383 3.84140793 9.48993836
O 7.70105193 2.14939613 2.68592013
Pu -5.71149375 -1.13708704 5.33616839
O 0.45950597 0.47169771 -10.66135192
O 4.57903875 3.20332345 -1.09698371
Pu 6.70222420 -1.08502349 -3.67564252
O 6.83637429 -5.14275552 -1.28533275
O -2.22426140 6.03642319 -6.25993476
Pu 1.71329173 -9.36558918 1.67107543
O 6.37007633 5.41841276 0.80862800
O 10.60199543 1.07701300 -2.04737097
Pu 9.29983256 3.06535902 1.56990356
O 6.80208060 -4.55356571 2.37179373
O -1.06121378 1.37083982 7.39414674
Pu -3.43219742 -1.14609686 -2.14812620
O -0.15943831 7.62501907 -6.92335170
O -0.34882813 -1.71945579 -11.67114377
Pu 1.65696464 7.15571271 -5.98041263
O -8.84034252 -5.28939429 -3.57908246
O -0.50184529 -11.64286293 -2.47946813
Pu 2.16596641 -2.59210295 -1.24385854
O -7.77472324 0.69170018 -0.97199093
O -4.58506390 -4.13647903 9.24082363
Pu 3.51149220 -9.46076369 -2.19495305
O 6.85301971 -4.20137063 -6.44891685
O -0.64882978 -4.75726752 -2.47627538
Pu 3.05793571 8.22356395 -0.08812890
O 8.35521724 0.11450630 -2.97792878
O 4.02269578 -6.05482395 -6.48462037
Pu 2.89449325 -7.20501823 -5.04397757
O -4.02437621 4.15494808 -5.14652860
O -9.70746009 -0.62016872 -1.24527482
Pu -3.12490332 7.48789665 -2.36826175
O -0.24460144 -5.24576885 1.90242954
O 4.87265980 4.90178717 -7.65102344
Pu 4.67132844 -7.46954858 0.23037938
O 0.95594471 1.73322863 -4.50646346
O -3.19817473 3.65217110 0.25877668
Pu -3.89174901 1.39792374 -4.00090000
O 1.49961608 -4.06169558 -11.37405684
O -5.43967462 -7.21772079 -1.46906471
Pu 6.80765137 -3.66629256 5.83824587
O -4.46297034 -1.96331816 -7.26798914
O 6.11558635 -1.74745926 6.24966824
Pu 6.44252970 6.61959637 7.03015140
O -0.82152436 4.84143209 0.80430744
O -7.89633506 1.61524497 7.64214880
Pu 7.89126701 3.49052166 7.28763745
O -2.43620322 -7.95110831 -3.55045964
O -2.49685468 -1.95872728 8.59917034
Pu 5.91855798 4.03029937 -2.55088521
O -10.19108742 1.77499054 1.00497884
O -1.15528882 -3.80168033 -6.44985774
Pu -0.57263954 -3.02018409 3.03367845
O 6.67973633 -1.29827970 3.75378372
O -4.16271480 5.63907687 -1.51734126
Pu 2.52936099 -2.24315033 2.51351056
O 3.46186909 8.80062384 5.85739338
O 4.82814796 0.03383276 -3.41270433
Pu 3.02466699 2.25362605 3.14574140
O 2.25388925 -2.82159897 -6.46008154
O 7.86781708 1.96804154 8.50331874
Pu 1.12239486 -11.80493603 -1.19102717
O -7.56440903 1.82532940 2.31322085
O -0.05522942 -8.33238937 1.33508870
Pu -6.59235369 -8.06459131 -0.11824406
O -6.99010643 -0.33971198 -6.53242533
O 2.74281559 -3.49279727 1.03142883
Pu 6.75297557 -2.34129109 -7.35008826
O -4.70207822 -8.09238777 -4.81329327
O 0.13149660 -2.27484234 -1.01945287
Pu 6.00104183 -6.79246170 -2.69967687
O 6.62954480 -7.17421409 0.02532276
O -7.92510684 -4.80532209 3.19316934
Pu 3.20261534 4.82751945 -0.40566295
O -10.07363240 -1.68525170 -4.05495605
O -5.73948546 -3.60686911 1.37976554
Pu 0.09081510 -7.55168686 -6.83853177
O 5.72621307 -2.15819630 0.49499065
O -5.70729361 1.01898538 5.20487249
Pu -5.23303656 -3.60731525 7.32847437
O -2.44224331 -6.00298042 0.00746962
O 1.52756206 2.30262171 -8.57716781
Pu 6.04309442 3.04256548 1.88176459
O -6.48845497 -1.92725588 7.21613106
O 4.80564702 7.46999540 3.27560368
Pu -3.44726631 1.54184702 0.48874361
O 1.19371350 5.05864452 -0.72669669
O -0.11989424 -3.21251112 0.81677252
Pu 8.48797092 0.42378876 3.51253979
O 4.98420632 2.83375630 3.77759387
O -0.32401195 6.52051536 -4.58558407
Pu -4.35249443 -5.67658181 -0.37232999
O 1.27415923 -3.69183556 3.36280121
O -6.37458112 4.28864436 -1.76852616
Pu -1.77329984 -0.14545215 8.61555350
O -6.00483887 -1.25792503 3.37064017
O 8.82353923 -0.04271322 5.39297142
Pu 1.98482106 -0.95338134 -7.15812643
O 6.75098268 0.49116734 -4.88165736
O 2.45129524 -9.07663907 3.48278734
Pu 7.91448680 2.05850257 -4.58188792
O -3.79744800 -5.82940950 1.99514010
O -0.35651269 6.06709509 -9.53162066
Pu 2.84229899 7.09072703 6.82097495
O 5.54931933 -0.36352504 8.08534014
O -1.26845252 -0.90022230 2.41209308
Pu 8.60800970 -4.09670010 -2.60509892
O -2.65705871 5.45565246 -3.18003112
O -2.38651145 1.23634912 -2.14442853
Pu -5.27603194 4.81786295 5.78632555
O -6.12759351 -5.46343937 6.64946546
O 1.32442647 7.32068519 1.04236349
Pu 5.73986929 -4.23982116 -4.90311044
O -0.41178727 -1.53406163 6.00254346
O 0.40428065 -0.43550480 8.73715235
Pu 4.26217423 6.80831700 -3.19955482
O -2.87042896 3.22646468 7.67244356
O -6.36326684 -5.11694558 -0.81195986
Pu 2.28558058 0.71405045 -9.60020588
O 1.35791403 -1.08558528 1.51565778
O -7.33290096 0.92924683 -3.12965647
Pu -0.49003752 -2.63217237 -3.89938620
O 6.78800494 7.99019687 5.66808931
O 8.94455966 4.70666000 2.83480923
Pu 7.96235912 4.73744886 4.46402280
O 10.77601730 -1.71402162 -0.73877680
O -1.93684016 1.35019172 9.84780636
Pu 1.95246970 -5.41105498 1.36227903
O 0.12833878 -6.43237561 -0.65780448
O -9.82264421 -0.64945113 7.22096039
Pu -7.19965476 3.48191720 7.90173742
O 8.53587250 5.35366633 6.49906984
O 1.52751380 1.86290421 -2.07752754
Pu 10.24610733 -0.83238753 -2.50520948
O 1.47432852 -2.40722420 -3.42145841
O -4.79267359 0.41242938 1.38513500
Pu -7.31741781 -1.35651539 -1.72060509
O -4.85617668 -1.30153491 -3.67104430
O -1.68762196 3.21132133 -6.40169549
Pu -5.60658558 -1.36060513 1.24471598
O 4.64003619 -6.12659291 -1.51995266
O 8.32369507 2.99607198 5.29182696
Pu -9.42816035 0.37674729 -2.86757032
O 9.25509201 -5.38582080 -1.25235551
O 3.41450491 -0.69617214 -1.34685210
Pu -6.93603157 7.05011359 2.92940270
O -1.90977478 8.77469617 -3.51723823
O 2.12755980 -8.04717499 -2.05219821
Pu -2.40104124 -3.91013078 9.37426581
O -3.84507953 9.09277617 4.89127232
O 4.55982734 8.24599320 -1.69868156
Pu -8.71725494 -3.18463125 -4.19775179
O 11.27906782 2.70397075 0.85652782
O -9.43718764 1.40559900 4.67635544
Pu 3.44297428 3.75218810 -8.53112086
O -0.84267932 -5.57687978 7.87661452
O -3.54727624 -7.01445515 3.98659353
Pu -8.56852206 4.26253057 -3.60110299
O 2.58102499 -6.89194119 0.15248402
O 8.82809230 -1.77452945 2.67397435
Pu 1.51258590 -2.15421940 -11.01638389
O -4.59408316 6.82875226 -3.91972089
O -8.78568829 -3.97821942 5.84565890
Pu -1.45239569 3.07082137 9.09237136
O -4.11999469 -7.99949134 0.24580745
O -1.68276277 -1.84711908 -8.32253388
Pu -2.29190115 4.87896444 -1.10227275
O -1.69335881 8.87213386 3.01028833
O 4.09364473 4.04144734 -4.28473032
Pu -3.99526090 1.90654233 6.53887058
O -4.17866653 -3.80712644 -1.58138696
O -0.80378904 -0.67139393 -3.54658164
Pu -1.27423889 -6.87819182 2.18583914
O -1.71928594 -4.18902490 5.00777925
O -7.94507437 -0.79445652 5.10301165
Pu -0.34340628 2.32904544 5.77861528
O 0.53857491 -4.38566278 5.67380006
O 4.90660613 -7.66146490 2.18782991
Pu 3.40022389 -1.31605419 -3.97497771
O -7.39135291 3.26433406 5.24842753
O -5.33843106 -1.30188579 -0.97314999
Pu 7.28261549 0.12060809 6.75512526
O -4.27450004 5.37702436 1.52240731
O 4.80118419 -5.78858581 -3.94282316
Pu -7.46772616 1.19954991 4.17880866
O 1.35826245 1.09556678 4.00983525
O 6.20524301 -0.44607439 -7.77145259
Pu -8.60266302 -2.01926524 6.43943938
O -9.01191579 4.46738001 -1.60270809
O 8.15899369 -3.31496192 0.51774338
Pu 2.56057863 -6.02721466 -1.80801206
O 10.74970271 -3.08894951 1.93767743
O 6.85649436 -2.11919531 -5.39756650
Pu -1.44270942 8.24981460 -5.42121162
O 7.04434275 -2.67133870 -2.45423318
O -9.15423800 2.49150616 -2.77146263
Pu -4.04064743 7.19919836 4.02563620
O -1.50860346 7.30208970 6.05196860
O -0.24605563 -3.25453531 -9.72126274
Pu -5.63629369 -1.42419138 -5.47939488
O 3.24643185 -0.52005734 -5.79026574
O -3.44312763 0.05706588 7.47385618
Pu -2.91516238 -9.73722980 0.34461905
O -3.54722170 6.03467472 -8.01699799
O -7.74589285 -3.38174380 -2.18090017
Pu -4.34929925 -7.89416394 -2.88460709
O 1.71262758 -4.49659705 -1.03320024
O -2.00988000 7.15876179 0.11226705
Pu -6.28942192 3.62188819 2.30363551
O -0.30985408 -8.03752540 -2.75413182
O -5.81903289 6.84824888 4.65673027
Pu 7.92061744 -5.65355257 0.44805314
O 4.03970410 2.79187291 -6.56706522
O -3.12183367 9.99256253 6.85621460
Pu -0.49423635 1.71931513 -2.48201129
O -2.60720922 -3.58788188 2.84156656
O 3.24281967 -1.24225417 6.08566022
Pu 5.20793048 8.63739055 4.73492457
O -7.30745833 4.69449010 3.56610311
O -3.96103498 8.66101545 -0.75514475
Pu -3.01978662 4.23654793 2.88578019
O 1.40403474 -7.02851583 2.46679280
O -7.58799992 -1.25851842 0.72250870
Pu -7.28340687 1.55829437 -5.90102826
O 6.77136651 3.74133029 -4.40035281
O -6.04586511 -8.86218320 1.78040713
Pu -7.22361861 -4.81376012 1.30684129
O -2.22688989 0.52529751 -9.16130013
O 7.28909266 -5.18945745 -3.81416504
Pu -1.06533674 -9.67856773 -3.38872552
O 2.73846545 5.10160274 6.65903553
O 0.44986328 0.34535986 -7.23158280
Pu 0.43337827 -8.31008599 -0.86330016
O 3.97369435 -3.51150151 -1.72847683
O 6.33110584 -5.35760483 5.08138622
Pu 0.85814524 5.74782981 -2.77870261
O 9.13169443 -5.66809000 2.03784178
O 0.01531082 0.97642863 0.67792656
Pu -2.77798085 10.70763814 5.07033362
O -1.70952175 -8.61845361 -7.05265135
O -2.63292457 -2.88590908 -2.90769699
Pu 6.25870178 7.16160129 -0.55639843
O 3.23261561 0.34971868 -7.85947441
O -3.15313220 8.21799208 -6.34650722
Pu -0.55121359 -1.00736062 0.28913865
O -2.51102782 -8.76494400 2.20376378
O -0.73515857 -7.13856183 4.14875705
Pu 5.75502453 4.44631274 -5.91245940
O -0.78975245 3.35080489 -1.22836108
O -4.94336807 4.48111820 3.84099961
Pu -0.79136608 -4.75087366 -0.39914764
O 6.68149903 2.25141388 -6.16652915
O -2.40448266 6.36020188 3.49947704
Pu 4.84724845 -1.15149618 4.54235201
O -4.12438281 -2.93734091 -5.13891869
O -7.34636511 3.10347102 0.32687908
Pu -4.53871387 6.70877657 -6.05022713
O 3.61800872 3.09466712 7.03920280
O 1.05461311 6.97633762 5.65384016
Pu -7.12047054 -4.94947851 4.91535478
O 4.13975467 -8.09253005 -3.81010965
O -7.89649326 -1.06366994 -3.82152596
Pu 1.29114528 -1.48701600 7.34747517
O -5.36126198 5.07705801 -6.81578273
O 1.61290498 -6.22092017 -3.60756447
Pu -1.88105313 4.54941505 -4.91316267
O -8.15731239 -7.06613196 -0.88942717
O 2.86505300 5.06686798 -2.47424857
Pu -6.23280789 2.33593840 -1.29507329
O 7.82713753 7.73648193 -1.51770782
O -3.09908604 -4.08639003 7.19882427
Pu -4.67731392 -7.67258616 2.57926888
O -1.42596583 -9.40530627 -0.90059608
O -0.49177874 -3.39501963 8.06038433
Pu 9.99313005 -1.40963333 1.05206761
O 5.57466542 0.41909793 5.54535257
O -4.00491762 -9.66104431 -1.64786300
Pu 2.98681953 -4.39543700 -7.26682562
O -5.02184624 2.97522796 -3.18918666
O 5.23423884 -8.34088564 -1.63704112
Pu -4.75652587 -4.09789791 -3.59156575
O 1.45609536 -3.94182345 -8.56625729
O 8.32036246 -3.34771982 4.52456041
Pu 4.69155977 4.18508484 5.41877357
O 0.17540799 4.52016649 -4.29033614
O 3.50389243 -5.96726487 4.66530144
Pu -3.61102485 -4.97908915 3.75533356
O 7.17636858 2.61178368 0.29691070
O 2.96408539 -9.09178718 0.07441109
Pu -0.04690416 -2.89505489 -7.79516681
O -0.75127771 10.01368614 5.47435364
O -6.62926894 5.54634051 1.41451267
Pu 7.79610086 1.02865708 -1.06255096
O -0.63905687 -4.37398850 10.21297651
O 8.86386942 -0.46057976 -0.38843374
Pu 0.87663332 -5.00284165 8.81007984
O -3.42170845 -5.62611081 -7.64919971
O -3.60506556 -1.86610707 5.51536437
Pu -1.01672615 1.00255714 3.18784008
O -1.90403522 2.58706954 -4.27452325
O 2.02743011 -3.45203962 7.80643239
Pu 9.49865202 -4.07151305 3.07289886
O -1.03241423 4.33079963 4.31325670
O 4.61830655 6.32280756 5.80842354
Pu -3.29700380 -3.87993850 -6.64306614
O 1.78328810 5.12206826 -6.22322717
O 1.08738252 -10.01575288 -2.15308268
Pu -0.96488602 -0.66735286 -10.05078091
O -1.33280148 -6.63373970 -5.52757565
O 9.31092807 2.48386322 -0.39400551
