420
ML-kMC step 7000
Pu 1.56830493 5.53070571 4.15674583
O 2.25226493 0.57634079 7.05657567
O 4.69711951 -2.81832742 -3.99007468
Pu 2.22360163 3.55218646 -4.82510031
O -4.98872066 8.04463364 2.36865830
O 9.28989105 -2.24634295 -3.59167177
Pu -7.61376477 5.62672270 -0.54958908
O 3.09622080 -11.55612390 -1.89644055
O -6.78778128 -3.24913928 -4.82745958
Pu -3.88677675 3.75080462 -7.37400565
O 1.17690151 -6.54669932 5.99471846
O 4.63847834 7.02781904 8.21369740
Pu 4.98724436 -5.44899155 3.55081477
O 2.38807159 2.87380616 0.24193287
O 5.53304564 5.93242962 -4.44715095
Pu -1.42973283 5.40074197 6.32226310
O -5.71826668 0.86916114 -5.00260732
O -4.28704293 1.22646136 -1.39996599
Pu -5.21911905 4.92105497 -3.39405102
O 7.50186899 2.54916762 -2.59050391
O 3.43792394 -0.66066972 3.13863043
Pu 1.81076182 3.74723085 7.88468696
O -4.08369884 1.82719447 -7.78308451
O -6.22403145 6.99317270 -1.12758699
Pu 0.32326341 -5.15692196 -9.99197939
O 2.13164602 7.49937552 -2.43062038
O -5.22979679 3.12468417 7.45335568
Pu 5.87292370 -3.32973855 -1.18027245
O -1.40043619 2.60989017 2.07642169
O -0.18233691 3.48003455 7.34543634
Pu -0.63329699 6.92062184 1.50492922
O 4.04335530 -5.51824095 1.76177068
O 0.77568956 4.21375971 5.68459873
Pu -3.35543436 -0.30056267 -7.82843760
O 1.36496013 -6.00699217 -6.03296562
O 0.68530701 8.67781926 -4.63898607
Pu 0.23066462 3.19018732 0.68153430
O -1.69164737 4.08705162 -8.47831979
O 4.68067833 -3.34116875 4.11155910
Pu 0.15244327 3.80552827 -8.95652319
O -7.01875917 5.26974719 7.13914093
O 0.86724228 -1.38061288 -9.02599068
Pu -3.51389446 -7.28770558 -6.28973023
O -4.29237627 -5.42368772 -5.72881441
O -5.45896081 -5.30368622 4.06766866
Pu -0.80146958 -6.17568835 6.01586494
O 6.25771769 2.19457074 6.59364811
O 1.08582359 -11.07457422 0.79112148
Pu -3.18544294 8.02788481 7.50790447
O -1.95497848 1.96767062 4.77028313
O -9.21322737 5.48964007 0.48379928
Pu 5.03919185 0.91420955 -7.27990428
O 3.21590551 -6.08190015 7.48647743
O 0.35020652 6.95991926 3.37970200
Pu 4.35746138 0.77487432 7.21005637
O -3.83931140 -5.89321474 -3.13520386
O -8.88639875 -4.32858127 0.27084724
Pu 6.98864362 -2.41455125 1.90621459
O 1.74175247 3.72310562 2.59580650
O -0.68728773 7.12445137 -2.27403734
Pu 0.33160190 8.84765450 -2.48186723
O 4.88488394 8.43310971 0.96956008
O -5.85995825 -6.66340417 1.12616474
Pu -1.70630272 6.54433526 -8.21808936
O 4.08664126 6.52390191 0.07318693
O 3.84596540 1.97679437 -9.56462239
Pu 2.19711981 -7.50210754 4.51161483
O -4.46026706 2.51373619 2.39188568
O 1.57123477 9.43137292 -1.00819619
Pu 2.52622431 -4.75769467 6.29008400
O 3.02830853 -1.18843101 -9.98806060
O 0.15626322 -6.71444934 -8.70054121
Pu -8.90286605 4.85256590 4.98702330
O 9.18535641 0.45508262 1.90094443
O 4.39762510 -2.97202263 -7.70116355
Pu -1.01394309 -6.29220042 -3.67301856
O -8.47170315 6.76856729 4.07069160
O -6.98540943 5.20936186 -4.23941642
Pu 5.01209367 5.85098256 2.14528454
O 3.95851282 4.34425799 1.40192313
O -8.45577953 3.11963260 -5.51440523
Pu 11.22243349 2.77107750 -1.21567544
O 6.32372533 4.74870730 6.34991512
O -1.88309063 6.30712412 8.26372761
Pu 3.30234913 1.44270122 -0.92504847
O -0.46565463 -1.44356643 -5.74203340
O -5.62601282 -3.30901147 5.36955272
Pu -0.88718834 0.80910072 -5.73683418
O 3.59128621 5.27925736 3.98000651
O 3.20060949 7.67808817 -4.74744168
Pu -9.90548076 1.39828605 6.57848508
O -9.37045076 3.45377726 6.84456537
O 11.42198692 3.34488945 -3.09573696
Pu -9.59626957 3.65151738 1.16992844
O 5.42616231 5.79443403 -1.76703859
O -3.44780509 4.28366151 5.39182288
Pu -8.97827264 0.21384973 0.82454420
O -10.16703733 4.10953608 3.30478212
O 1.36896561 -8.60350464 -5.64417016
Pu -8.39669708 -5.29183208 -1.51441068
O -2.32193479 -0.30342585 -0.23970212
O 1.99052842 4.56195791 -9.32419228
Pu -1.90821833 -2.83162171 6.43992597
O 4.56227241 1.58323199 1.75481490
O -3.91562667 6.45268939 6.21536398
Pu -4.57148437 7.05488330 0.50602054
O -3.11234104 0.18627714 -5.60021970
O 6.20741556 4.67346325 3.42805080
Pu -0.69624168 8.24865967 4.42405929
O 0.49049218 3.94060530 9.43548077
O 7.88819425 2.25227771 2.66489573
Pu -5.73010736 -1.18207555 5.40971040
O 0.42786061 0.54091746 -10.65508630
O 4.63037371 3.24132251 -1.14689753
Pu 6.83405738 -1.00543778 -3.68854575
O 6.88336143 -5.22031929 -1.31772350
O -2.27749974 6.04348871 -6.21335474
Pu 1.73312922 -9.43992059 1.74859212
O 6.43597083 5.44045339 0.86033119
O 10.50074062 1.03873485 -2.11557472
Pu 9.40979961 3.04211077 1.68029349
O 6.71821942 -4.45227066 2.40228396
O -1.05871401 1.30560560 7.38478467
Pu -3.18359766 -1.15488045 -1.93286037
O -0.04062730 7.63227361 -6.88869128
O -0.34335391 -1.66209208 -11.79395330
Pu 1.64945209 7.26506972 -5.86618863
O -9.09007704 -4.98582085 -3.37614475
O -0.60185752 -11.74650440 -2.31527136
Pu 2.18023911 -2.65585474 -1.35058271
O -7.46605539 0.64290392 -0.78732749
O -4.55472531 -4.06754484 9.47377476
Pu 3.53316068 -9.56351838 -2.22309480
O 6.35920833 -4.30792039 -6.66414138
O -0.66306401 -4.67428320 -2.49029210
Pu 3.03289468 8.46842196 -0.00985477
O 8.42207499 0.18280755 -3.05513263
O 3.97376499 -5.96030913 -6.34779802
Pu 2.80876856 -7.20967949 -4.87865200
O -4.04456046 4.22605469 -5.18197568
O -9.51533066 -0.52700771 -0.99231516
Pu -3.12140324 7.51329410 -2.32819632
O -0.24661348 -5.25405128 1.90332236
O 5.19114308 4.95566374 -7.72625275
Pu 4.70797510 -7.51915317 0.23283745
O 0.95594471 1.73322863 -4.50646346
O -3.14800104 3.59599372 0.35001238
Pu -4.07297268 1.22163513 -3.89290603
O 1.40277017 -4.11229245 -11.48542771
O -5.41336073 -7.21512831 -1.44350595
Pu 6.96062889 -3.59654196 6.02253546
O -4.44970975 -1.80921200 -7.30933198
O 6.14086875 -1.65522835 6.23920903
Pu 6.67987319 6.58397738 7.29650365
O -0.78005323 4.88362077 0.77424791
O -7.90876366 1.66921435 7.22293470
Pu 7.58648092 3.45124259 7.32480681
O -2.42536729 -8.13923001 -3.36055680
O -2.55080127 -2.13031062 8.59852342
Pu 5.95471278 4.04975838 -2.48128294
O -10.17701945 1.79383093 0.96591343
O -1.13942972 -3.80457226 -6.42792081
Pu -0.66480798 -3.08130642 2.91695827
O 6.76313088 -1.11310533 3.74829120
O -4.14484620 5.58208243 -1.39944585
Pu 2.48882244 -2.26291468 2.57479036
O 3.34906318 8.77376236 5.71744864
O 4.82657681 0.06656523 -3.35170591
Pu 3.03112541 2.25360317 3.13908369
O 2.45278546 -2.84952344 -6.72995612
O 8.04892713 2.51798066 8.97690513
Pu 1.17900040 -11.79806267 -1.19722809
O -7.81694039 1.80202477 2.32469564
O -0.01677347 -8.61438020 1.10372332
Pu -6.59025378 -8.14377485 -0.06076841
O -7.05419646 -0.33694664 -6.60948394
O 2.73163045 -3.46515036 1.02002954
Pu 6.50886859 -2.30799000 -7.24675016
O -4.66524849 -8.24919296 -4.85748986
O 0.13716251 -2.35359688 -1.10640048
Pu 6.10522993 -6.86747642 -2.71750302
O 6.91288760 -7.30747306 0.16571690
O -7.88498815 -4.80491193 3.21562396
Pu 3.08834581 4.89318302 -0.36955854
O -10.27712773 -1.74212928 -3.93282863
O -5.73345048 -3.55516424 1.39325601
Pu -0.01932792 -7.55952981 -6.87927180
O 5.72526566 -2.15482510 0.48610149
O -5.69812478 0.95718657 5.18123679
Pu -5.16962942 -3.67098916 7.48147733
O -2.40743430 -6.12033788 0.03120334
O 1.50721152 2.28091875 -8.51730532
Pu 6.02896711 3.23360412 1.77024016
O -6.46749564 -1.88288804 7.17793679
O 4.82306331 7.46121133 3.18985962
Pu -3.36785762 1.51222931 0.48284550
O 1.19433266 5.13740995 -0.83405037
O 0.03413542 -3.31419207 0.71751910
Pu 8.13448235 0.44847159 3.54088439
O 4.84885235 3.01958173 3.82141083
O -0.23619527 6.61751433 -4.45128085
Pu -4.35246629 -5.67670772 -0.37225895
O 1.27349882 -3.62452958 3.36965635
O -6.38303085 4.27908916 -1.79018611
Pu -1.79254887 -0.19367710 8.62444569
O -5.98602076 -1.24278242 3.33128865
O 8.93457139 -0.37283402 5.42012379
Pu 1.96182380 -0.95491323 -7.21203178
O 6.73961810 0.55615183 -4.90835612
O 2.56778537 -9.22052595 3.51618409
Pu 7.92641095 2.10099932 -4.61705521
O -3.77773583 -5.89656511 1.97861489
O -0.53609734 5.80332182 -9.73087883
Pu 2.83674424 7.22607614 7.05342412
O 5.86512511 -0.10431391 8.21146638
O -1.28473238 -1.01115209 2.33223060
Pu 8.85727834 -4.07847984 -2.67048686
O -2.60857892 5.47799270 -3.10966857
O -2.22722206 0.90207153 -2.10838251
Pu -5.25705765 4.89439316 5.89411980
O -6.13838565 -5.27306665 6.90298795
O 1.27045657 7.38792570 0.92740309
Pu 5.72118240 -4.18447686 -4.85153854
O -0.36855847 -1.58982172 6.05684436
O 0.25977979 -0.64889401 8.77406345
Pu 4.21791623 6.93463271 -3.23046989
O -2.85934962 3.23240680 7.57959256
O -6.47805251 -5.22541660 -0.84483724
Pu 2.26348251 0.69292529 -9.64184761
O 1.27173280 -1.06989671 1.40460529
O -7.50192818 0.87432753 -3.12552233
Pu -0.49003752 -2.63217237 -3.89938620
O 6.90766086 7.76867524 5.56384698
O 9.15288733 4.70623215 2.94898197
Pu 8.04290024 4.78127623 4.49951470
O 10.98297511 -1.59269722 -0.77722012
O -2.18440387 1.43809092 10.01612745
Pu 1.93715995 -5.42153584 1.36305437
O 0.06019080 -6.49766083 -0.65474503
O -9.66496638 -0.58041701 7.14489137
Pu -7.27342359 3.41071879 7.72068813
O 8.41221464 5.43865611 6.87410673
O 1.57489627 1.73230990 -2.08158802
Pu 10.28972172 -0.86523123 -2.51121459
O 1.43309324 -2.39939397 -3.42424532
O -4.79820211 0.31507656 1.34438981
Pu -7.20846672 -1.34768498 -1.72951382
O -4.85897038 -1.33699048 -3.59009376
O -1.68335683 3.19800818 -6.41530899
Pu -5.72832103 -1.54327438 1.36857894
O 4.59336829 -6.07906899 -1.54491448
O 8.10168498 2.80846495 5.13509282
Pu -9.50378082 0.30717356 -2.92171274
O 9.24776045 -5.18628711 -1.08166309
O 3.42863999 -0.71173884 -1.32447822
Pu -6.85688036 6.98232780 2.99770855
O -1.93160340 8.87570555 -3.44002570
O 2.24412126 -8.12166560 -2.04594864
Pu -2.54273260 -3.90966640 9.61471736
O -3.71368889 8.88649690 4.80502597
O 4.62091784 8.20051212 -1.60052221
Pu -8.83571438 -3.13454566 -4.19573577
O 11.21777972 2.79759432 0.82028103
O -9.48152625 1.21325054 4.65609324
Pu 3.61480362 3.62303482 -8.48493984
O -0.89888008 -5.46530513 7.81118161
O -3.57121212 -6.97854903 4.08737958
Pu -8.48676880 3.86912793 -3.49518521
O 2.56048820 -6.92158318 0.14094860
O 8.68217195 -1.79379042 2.57930469
Pu 1.45565528 -2.12882882 -11.01900063
O -4.34167955 6.89911297 -4.09068180
O -8.63150511 -3.91711144 5.88383934
Pu -1.52131400 3.04504664 9.08624075
O -4.13988005 -7.99912380 0.27213426
O -1.75085519 -1.90180911 -8.42832075
Pu -2.29249990 4.85958591 -1.07540850
O -1.75367023 9.15590680 3.04348443
O 4.07760520 4.05282390 -4.31685816
Pu -4.03666642 1.83487346 6.44331825
O -4.16529688 -3.81188901 -1.55466698
O -0.80378904 -0.67139393 -3.54658164
Pu -1.40171261 -7.10186753 2.12739092
O -1.66984042 -4.36301658 5.07446926
O -7.83295906 -0.59786327 5.05931078
Pu -0.31675972 2.29550443 5.81989308
O 0.52804274 -4.37195144 5.74108077
O 4.80246209 -7.55306189 2.19984455
Pu 3.39851395 -1.31362098 -3.97387068
O -7.34977595 3.13813098 5.30350000
O -5.33680781 -1.29196105 -0.96832753
Pu 7.42870477 0.14470301 6.66359730
O -4.27450004 5.37702436 1.52240731
O 4.80374325 -5.77954562 -3.95587563
Pu -7.46950759 1.16351004 4.23158984
O 1.33863455 1.04010763 4.00257331
O 6.27293192 -0.49080053 -8.12831370
Pu -8.55857188 -1.99099905 6.40992269
O -9.04319645 4.55706327 -1.77313811
O 8.21233604 -3.16082137 0.27195856
Pu 2.53339734 -6.04362449 -1.79609067
O 10.72189405 -3.17371169 1.82967347
O 6.74115790 -2.06028574 -5.34881978
Pu -1.36847604 8.17118739 -5.24703165
O 7.19335312 -2.75196357 -2.52400144
O -9.36148653 2.29260405 -2.65795308
Pu -4.08129230 7.18221548 4.02335252
O -1.49275821 7.38081989 6.13238865
O -0.31060737 -3.29257301 -9.74179748
Pu -5.63991636 -1.43324708 -5.38215264
O 3.40090177 -0.53494515 -5.89946256
O -3.56003956 0.20547890 7.51539367
Pu -3.05469665 -9.64625879 0.28343570
O -3.53982839 5.83818387 -7.94416219
O -8.02420645 -3.28513233 -2.00285344
Pu -4.46364530 -8.02290769 -2.87867353
O 1.71364650 -4.49809951 -1.03223150
O -2.13806892 7.20865215 0.30197551
Pu -6.28415353 3.60065730 2.32216878
O -0.31476115 -8.04563941 -2.75110238
O -5.91327035 6.66585590 4.82038934
Pu 8.04490061 -5.60333596 0.39563288
O 4.10685533 2.77810693 -6.65893426
O -3.22133016 10.08522427 6.81158452
Pu -0.46349943 1.70097273 -2.49209322
O -2.62613638 -3.59093816 2.69161626
O 3.44295672 -1.36852060 6.10971461
Pu 5.23201304 8.62456068 4.64984538
O -7.51723825 4.72500957 3.67040974
O -3.93722335 8.45075571 -0.76872739
Pu -2.89065005 4.27488866 2.75955567
O 1.37187753 -7.12701041 2.68363371
O -7.65153524 -1.15628936 0.87591717
Pu -7.39703713 1.52786962 -6.11247867
O 6.81339908 3.82231781 -4.38272130
O -6.10818140 -8.84452580 1.68376102
Pu -7.27932743 -4.80549567 1.29323379
O -2.28219856 0.53673748 -9.18437852
O 7.36425508 -5.24874356 -3.80216681
Pu -0.93263800 -9.89237065 -3.05902952
O 2.69452492 5.18399815 6.82912555
O 0.47673162 0.26422393 -7.18043830
Pu 0.43716293 -8.37218741 -0.79319577
O 3.99980339 -3.55530444 -1.70784771
O 6.08567049 -5.23980539 5.21172666
Pu 0.81134478 5.85084329 -2.72163805
O 8.97996180 -5.63257158 2.08996314
O 0.09741077 1.12214544 0.36128195
Pu -2.81785640 10.66021671 5.02601084
O -1.84215231 -8.38983089 -6.98063235
O -2.65995975 -2.89669221 -2.86050093
Pu 6.21478338 7.19133356 -0.56433713
O 3.12159431 0.48131636 -7.90951415
O -3.34548917 8.29215488 -6.28385202
Pu -0.51972574 -1.02649897 0.26998434
O -2.55615220 -8.80643720 2.08834104
O -0.70116953 -7.25209198 4.26196501
Pu 5.67174994 4.42968949 -5.88358920
O -0.81434318 3.39655047 -1.18376477
O -5.06387734 4.65180152 3.91728289
Pu -0.86917714 -4.75177162 -0.38398089
O 6.75406325 2.33445663 -6.27788709
O -2.38349906 6.41053567 3.47936881
Pu 4.84192538 -1.15463327 4.53620556
O -4.29058363 -2.90445064 -5.11613335
O -7.35178830 3.20329491 0.31669851
Pu -4.54699585 6.65821625 -6.06324535
O 3.63871878 3.08430002 7.04706316
O 1.23440072 7.14509121 5.69575111
Pu -7.12621470 -4.95725663 5.03865702
O 4.25048729 -8.12543693 -3.84348815
O -8.08003114 -1.12599671 -3.79817556
Pu 1.35874655 -1.47880758 7.36071439
O -5.48598498 4.95465743 -6.82046904
O 1.47278004 -6.36962623 -3.46127708
Pu -1.88347063 4.51303751 -4.91964864
O -8.18468579 -7.24405495 -0.87621971
O 2.84175738 5.15918278 -2.47385976
Pu -6.19284454 2.32209411 -1.27857133
O 7.95606365 7.69688546 -1.24053892
O -3.21154433 -3.99285129 7.56275704
Pu -4.68583033 -7.64002803 2.62068846
O -1.45966886 -9.54056820 -0.75785255
O -0.37029538 -3.30369119 8.16614274
Pu 10.09810319 -1.29158369 1.09660021
O 5.56135428 0.42739173 5.68532843
O -4.14475003 -9.82183246 -1.54363554
Pu 3.07726592 -4.57724871 -7.31967923
O -5.02300862 2.97749335 -3.19071768
O 5.28215207 -8.48831336 -1.65295869
Pu -4.91435796 -4.02952429 -3.52242779
O 1.46634674 -4.11273908 -8.62874336
O 8.66062370 -3.57683919 4.91341752
Pu 4.70681647 4.22186157 5.39900777
O 0.36379792 4.54205341 -4.28602638
O 3.43434676 -5.85130843 4.68191705
Pu -3.61035619 -4.97911710 3.75590628
O 7.24035816 2.44127194 0.28063073
O 2.89579307 -9.52948432 -0.15700276
Pu -0.03199699 -2.91000670 -7.78666905
O -0.86407280 9.79749788 5.57552810
O -6.68829170 5.65087794 1.36984460
Pu 8.02058665 1.05260130 -1.02698792
O -0.87825889 -4.67462114 10.35105610
O 8.97589708 -0.54255208 -0.36999969
Pu 0.73705281 -4.84765889 9.03290411
O -3.01214250 -5.53045004 -7.78258554
O -3.70760775 -1.71506190 5.51944373
Pu -1.10788481 0.96843585 3.23960630
O -1.74578063 2.41932331 -4.37830892
O 2.19167204 -3.43269411 7.92450133
Pu 9.58370435 -4.09184082 3.22147547
O -1.05127619 4.31929098 4.30935437
O 4.50828937 6.29932321 5.77304286
Pu -3.36383784 -3.89625060 -6.62287837
O 1.86268976 5.16786774 -6.03369958
O 1.05072747 -10.01365829 -2.02279349
Pu -1.11700455 -0.69972718 -10.19425779
O -1.36279508 -6.70748302 -5.52270345
O 9.34837462 2.50336591 -0.39973139
