420
ML-kMC step 3000
Pu 1.42741783 5.53352175 4.36705845
O 2.38850649 0.54196538 7.72050730
O 4.54502626 -2.67502028 -3.91743811
Pu 2.25673856 3.70802137 -4.86347152
O -5.02772518 7.74074978 2.41427373
O 9.56120101 -2.37993846 -3.15581488
Pu -7.63291706 5.61263170 -0.62346219
O 3.05071456 -11.63838044 -2.31766524
O -6.77825405 -3.00321164 -4.82937026
Pu -3.90588711 3.71760370 -7.43781942
O 1.22975258 -6.62175706 5.80437041
O 4.80239757 7.04137589 8.11996246
Pu 5.17800322 -5.57749157 3.66904530
O 2.39975267 2.92671184 0.11058725
O 5.61381420 5.98333454 -4.42905542
Pu -1.45283080 5.45792454 6.33985283
O -5.95854926 0.71546070 -4.92978934
O -4.21645208 1.18202433 -1.38966214
Pu -5.29177698 5.00883697 -3.46776476
O 7.41952089 2.45455529 -2.51532401
O 3.72196827 -0.76365336 3.06624353
Pu 1.75651629 3.96217600 8.05801481
O -4.26239488 1.63096117 -7.75614501
O -6.08038576 6.92633067 -0.92047067
Pu 0.56490610 -5.34776791 -10.10222841
O 2.12343633 7.45128412 -2.50876486
O -5.37647339 2.92294727 7.60321044
Pu 5.89061688 -3.30472819 -1.22351660
O -1.37974077 2.89155969 1.95603793
O -0.24679226 3.62681764 7.54002734
Pu -0.57077142 6.83983397 1.46290089
O 4.22746316 -5.48125673 1.97983165
O 0.74182884 4.21335118 5.66310569
Pu -3.39078878 -0.26697839 -7.94889147
O 1.20845114 -6.09727366 -5.97877197
O 0.48566847 8.92814526 -4.55280988
Pu 0.37531673 3.20113421 0.67996337
O -1.72846986 4.15848373 -8.53164580
O 4.63871641 -3.22661674 4.04443516
Pu 0.28826747 3.89253959 -9.17273758
O -6.71010954 5.27601019 7.44097728
O 0.92848374 -1.37543858 -9.13545742
Pu -3.38915366 -7.48418789 -6.26804670
O -4.41834453 -5.66867125 -5.78652691
O -5.48229907 -5.44351431 4.06527151
Pu -0.78895001 -6.20564249 5.89903364
O 6.12607506 2.44517721 6.48222123
O 1.05475405 -11.44595820 0.56205841
Pu -2.98507211 7.93889650 7.50941732
O -2.09312439 2.20448649 4.94908081
O -9.19773394 5.70388525 0.46781160
Pu 5.07965355 0.91405683 -7.44341021
O 3.40477536 -6.01591224 7.69102213
O 0.39884262 7.17125844 3.46379361
Pu 4.48594332 0.91355716 7.31513068
O -3.86025152 -5.78744053 -3.39033343
O -9.07177003 -4.61967194 0.30673479
Pu 7.26884725 -2.62062647 1.81173913
O 1.58867527 3.82140697 2.70681569
O -0.87701670 7.18011852 -2.37472841
Pu 0.23292565 9.12802394 -2.66897078
O 4.74989136 8.21166008 1.08240225
O -5.89765450 -6.61507178 1.17605862
Pu -1.65638686 6.60298152 -8.19717994
O 4.00361589 6.52324891 -0.24079278
O 4.14550704 1.75730659 -9.46977649
Pu 2.27666006 -7.80364282 4.50596093
O -4.51470238 2.54179886 2.31471988
O 1.67709631 9.29236363 -0.87360502
Pu 2.60300998 -4.71357623 6.44404207
O 2.86737025 -1.21594828 -10.17114754
O 0.74838685 -6.85660685 -8.71814548
Pu -8.93237440 4.79549576 4.84939004
O 9.37922990 0.46645820 1.81503477
O 4.60973146 -3.26144770 -8.14932073
Pu -0.98106905 -6.45688951 -3.71383759
O -8.38125477 6.84106084 4.41911842
O -7.02280973 5.02638950 -4.32620943
Pu 5.01703828 5.86149797 2.14303713
O 4.04564591 4.37920779 1.41824227
O -8.29410089 2.95165125 -5.34198381
Pu 11.28068068 2.74917404 -1.51237385
O 6.31135544 4.68611577 6.51249315
O -2.13665581 5.90002152 8.27461080
Pu 3.54804412 1.10074941 -1.01434309
O -0.01551950 -1.60041440 -5.40951679
O -5.63434200 -3.34335049 5.82438811
Pu -0.94156113 0.89858053 -5.81374866
O 3.64752667 5.32560466 3.82058853
O 2.91514337 7.24387020 -4.58550180
Pu -10.16734194 1.52707157 6.38302048
O -9.43928874 3.86257400 6.52504602
O 11.69217326 3.73671711 -3.13216529
Pu -9.66377942 3.88578555 1.13219826
O 5.51026001 5.90753437 -1.73896286
O -3.15376614 4.54194455 5.76025797
Pu -9.05047142 0.43902151 0.61589454
O -9.96790281 4.17602741 3.14335974
O 1.55577375 -8.56884728 -5.65338085
Pu -8.65630558 -5.40907655 -1.56253807
O -2.23561004 -0.31071163 -0.35906665
O 2.26960286 4.83411708 -9.46821661
Pu -1.61206873 -3.14736946 6.86717912
O 4.55759736 1.78272880 1.86527886
O -3.76234034 6.61569972 6.23323294
Pu -4.54610080 7.22357663 0.39676505
O -3.21201463 0.18621518 -5.55191685
O 6.38815913 4.70752257 3.66389075
Pu -0.52818092 8.72690474 4.36225526
O 0.32332576 4.17972530 9.50705494
O 7.93725422 2.48798073 2.52058582
Pu -5.79583068 -1.16552120 5.40099966
O 0.25312574 0.29378774 -10.48090695
O 4.74902374 3.23642073 -1.07761470
Pu 6.91179856 -1.01345967 -3.77293159
O 6.67225333 -5.23603708 -1.46310184
O -2.15360221 6.09559026 -6.22608956
Pu 1.63071406 -9.79047263 1.73015774
O 6.39380667 5.40003040 0.83452446
O 10.41523974 1.10010136 -2.02036528
Pu 9.46741059 3.31375864 1.31284071
O 7.03008862 -4.40036784 2.46742278
O -1.11318232 1.29020185 7.32971561
Pu -3.30028653 -1.43212475 -1.82027128
O -0.12681274 7.76702632 -7.07090498
O -0.27345365 -1.82116164 -11.82047117
Pu 1.68111792 7.20182288 -6.09242976
O -9.04866794 -5.04794438 -3.43760214
O -0.63410172 -11.91155346 -2.21768749
Pu 2.18149457 -2.63465384 -1.38527699
O -7.34466292 0.66037382 -0.89913679
O -4.54255411 -4.21930645 9.46233013
Pu 3.44335403 -9.71690271 -2.31459094
O 6.65425717 -4.32629125 -6.47482645
O -0.57727561 -4.82026369 -2.29889930
Pu 3.15460415 8.37004384 -0.04058648
O 8.36275472 0.13623847 -2.88324978
O 3.92642617 -6.05007046 -6.47501206
Pu 2.89252971 -7.30417764 -4.75815937
O -4.15187030 4.17990678 -5.29162225
O -9.50252811 -0.40957587 -1.13029282
Pu -3.19638223 7.69447225 -2.53422844
O -0.39112609 -5.20722835 1.95011731
O 4.77662309 5.03663831 -7.56591332
Pu 4.78036308 -7.77918735 0.25165275
O 0.99302909 1.67526174 -4.50958129
O -3.12523249 3.58233348 0.34970448
Pu -4.27898211 0.94198373 -3.92704342
O 1.56127665 -4.26734717 -11.46531807
O -5.47310443 -7.29097729 -1.44983853
Pu 6.96988804 -3.14609791 5.73630199
O -4.65347603 -1.81716634 -7.48054702
O 6.30827238 -1.48728312 6.41915468
Pu 6.54009079 6.54846561 7.07747021
O -0.77030407 4.99728053 0.98674314
O -8.18977612 1.72613041 7.45536879
Pu 7.66128302 3.65034611 7.50603214
O -2.32784179 -8.31800029 -3.57124546
O -2.48741968 -2.10504249 8.75430513
Pu 5.98758234 4.01237551 -2.43424105
O -10.25445897 1.92675911 0.93469200
O -1.15060907 -3.81289776 -6.45700812
Pu -0.58427189 -3.13635851 2.99196005
O 7.03556974 -0.94611527 3.90138426
O -4.16235487 5.87731199 -1.54565079
Pu 2.57288422 -2.37318728 2.39067368
O 3.61165518 8.74599166 5.59593093
O 5.15537276 0.19631941 -2.91009818
Pu 3.03493432 2.13907479 3.14575037
O 2.38384416 -2.82558386 -6.72237651
O 8.06151521 2.69171283 9.10088875
Pu 1.14657594 -11.95753276 -1.29623291
O -7.52578742 2.00633831 2.33420734
O -0.07509747 -8.79117065 1.18626781
Pu -6.68096899 -8.23087247 -0.12594106
O -7.28324803 -0.48419043 -6.61761048
O 3.01126903 -3.82195083 1.04322072
Pu 6.75453350 -2.45368020 -7.34297840
O -4.42536235 -8.50625291 -4.81182848
O 0.03864511 -2.34453340 -1.16645270
Pu 5.98432314 -7.08001358 -2.87623439
O 6.74412257 -7.08503896 0.09532748
O -7.87253780 -4.76532886 3.40642588
Pu 3.20493669 4.79876393 -0.54216349
O -10.29250799 -1.44783086 -4.09510922
O -5.95080802 -3.74752350 1.08035199
Pu 0.16493038 -7.56352604 -6.94248491
O 6.09697820 -1.98767819 0.45212720
O -5.68494409 1.00919510 5.13105630
Pu -5.35260161 -3.82006988 7.65033310
O -2.43886109 -6.30860009 0.06435172
O 1.65652127 2.46762791 -8.79576175
Pu 6.13510409 3.22888600 1.67080723
O -6.70016337 -1.76131439 7.32684493
O 4.87051583 7.50150589 3.19602133
Pu -3.52882008 1.59866376 0.50937784
O 1.33242109 5.00683517 -0.91228230
O 0.20680204 -3.34851411 0.69316259
Pu 8.39926080 0.59242069 3.52489467
O 4.80472705 2.90994599 4.02187703
O -0.10135160 6.74519888 -4.83349837
Pu -4.48715547 -5.71863276 -0.43168946
O 1.29149769 -3.49600358 3.43565302
O -6.42564629 4.28816336 -1.81005267
Pu -1.96413330 -0.17864867 8.74663782
O -6.10542628 -1.35189604 3.43670118
O 9.19325612 0.46307704 5.34669419
Pu 2.06591229 -0.95843683 -7.28951554
O 6.71753778 0.34591910 -5.17329039
O 2.48829281 -9.62347191 3.55637590
Pu 7.99918143 2.18168062 -4.52389181
O -3.62271842 -6.32368913 2.14131878
O -0.43665393 5.89356377 -9.55936386
Pu 2.99018216 7.26480239 7.02777307
O 6.19744355 0.63607233 8.27379481
O -1.62879359 -0.90850273 1.94489344
Pu 8.84191210 -4.30903550 -2.86295922
O -2.47764424 5.60767027 -3.02997065
O -2.20418550 0.84738558 -2.16528748
Pu -5.06542941 5.02161999 6.06163686
O -6.48114802 -5.39213581 7.19905188
O 1.26288125 7.55082031 1.00388702
Pu 5.71165759 -4.21864764 -4.68482426
O -0.31326412 -1.77239771 6.11817108
O 0.21520575 -0.45755104 8.97024224
Pu 4.20878608 6.90023773 -3.21409529
O -2.84128420 3.31627848 7.71467743
O -6.63729955 -5.45318913 -0.85134374
Pu 2.01809481 0.61231970 -9.66196307
O 1.38640607 -1.05841303 1.26888946
O -7.43748924 0.86622558 -3.09295321
Pu -0.60654499 -2.59466715 -3.73822321
O 7.14374286 7.58844956 5.52049904
O 9.19860720 4.56408043 2.86692592
Pu 8.13891072 4.83030299 4.54256800
O 11.38268313 -1.44382785 -0.67384356
O -2.25167517 1.49741000 10.01799995
Pu 2.29518466 -5.72951928 1.55150354
O -0.14966558 -6.54563919 -0.78439896
O -9.98624721 -0.34311405 7.18831229
Pu -7.29830306 3.46741558 7.65832904
O 8.33579310 5.69160619 7.03547985
O 1.96966735 1.21847992 -2.26099046
Pu 10.31424464 -0.82370158 -2.32679607
O 1.34557462 -2.31846843 -3.45901800
O -4.76778405 0.12762989 1.30401961
Pu -7.44180103 -1.37032745 -1.76426481
O -4.82489966 -1.42260383 -3.38332615
O -1.85369386 3.04630385 -6.51603156
Pu -5.89371722 -1.59355604 1.47065319
O 4.56851437 -6.07930992 -1.50237505
O 8.34796307 2.96334224 5.42998889
Pu -9.51947010 0.31641227 -3.13436821
O 9.31613138 -5.14449539 -1.09561633
O 3.50539160 -1.20488662 -1.35836722
Pu -6.88847027 6.85407549 3.03802164
O -1.89171972 8.97030592 -3.46858098
O 2.00059953 -8.26359276 -2.04787835
Pu -2.65149150 -3.96185930 9.73683042
O -3.66579034 9.08165521 4.75971784
O 4.57776235 8.47141939 -1.61831746
Pu -8.76615669 -3.24415774 -4.12559755
O 11.27863714 2.68071014 0.78329709
O -9.38871602 1.47879663 4.56835496
Pu 3.65972664 3.63738096 -8.65132839
O -0.66555098 -5.42381897 7.84976645
O -3.90232104 -7.08238728 4.38499172
Pu -8.64472366 4.02123574 -3.54280241
O 2.71570517 -7.07058306 0.11553680
O 9.05084849 -2.24306056 2.67562312
Pu 1.50704470 -2.18009419 -11.25482527
O -4.30733430 7.14992803 -4.26285517
O -8.68473991 -3.65568920 5.85874781
Pu -1.58721141 3.12432300 9.13408594
O -4.18239052 -8.04631894 0.29483814
O -1.80190033 -1.83848907 -8.39717202
Pu -2.22502335 4.83735828 -1.02341136
O -1.90830620 9.86567575 3.49615940
O 4.18876040 4.04290141 -4.39986276
Pu -4.12423652 1.83919360 6.53487054
O -4.13601728 -3.88194364 -1.46578704
O -0.80190447 -0.65291371 -3.53190834
Pu -1.39132011 -7.11778109 1.96305673
O -1.51054433 -4.55164648 5.20186931
O -7.84033853 -0.61863021 5.23641246
Pu -0.28426821 2.45278423 5.96108186
O 0.84254730 -4.16593898 5.84479937
O 4.85015775 -7.63056022 2.16198657
Pu 3.30678395 -1.07591735 -3.95284194
O -7.43223881 3.26725203 5.41562390
O -5.65163062 -1.44548146 -0.89264567
Pu 7.40567345 0.35395821 6.79717762
O -4.31641120 5.50672800 1.49738427
O 4.99429447 -5.99742491 -4.20975807
Pu -7.49997156 1.12945792 4.27424546
O 1.38816356 1.15121689 4.14199183
O 6.24213017 -0.63444060 -7.84532355
Pu -8.69617227 -1.85491273 6.59314748
O -9.08004293 4.96338768 -1.83231560
O 8.55046443 -3.33314518 0.44399805
Pu 2.53050506 -6.05300880 -1.80469507
O 11.19960368 -3.10068974 2.02128170
O 6.84227403 -2.33665323 -5.30562268
Pu -1.42787703 8.14243334 -5.41643325
O 7.25703934 -2.80691607 -2.45872653
O -9.66425036 2.32028487 -2.80901187
Pu -4.06610809 7.20368732 4.22656041
O -1.37576982 7.52409520 6.08592424
O -0.21820515 -3.37987997 -9.84351423
Pu -5.81846906 -1.49516567 -5.51536138
O 3.31013783 -0.44080917 -5.77539607
O -3.86688195 0.18322248 7.87883059
Pu -3.08663841 -9.73434314 0.41779646
O -3.55028692 6.33831157 -8.30665235
O -8.18410110 -3.14400560 -2.04473725
Pu -4.31251885 -8.01186718 -2.89479270
O 1.70247478 -4.50119030 -1.03832681
O -2.24522628 7.13041630 0.17150685
Pu -6.42877615 3.75484406 2.33157427
O -0.21516883 -8.10429665 -2.81334459
O -5.86827420 6.74313574 4.93209637
Pu 8.08590111 -5.55773548 0.49355325
O 4.26487731 2.65974801 -6.91892778
O -3.65670264 9.89628830 7.05707207
Pu -0.29453494 1.55149283 -2.52719448
O -2.57028111 -3.73661076 2.79006380
O 3.64222308 -1.25689485 5.94020800
Pu 5.39195536 8.59623757 4.69122739
O -7.70726245 4.73574926 3.37201364
O -3.83096948 8.58512416 -0.94412565
Pu -2.86310003 4.33120765 2.79269509
O 1.77960974 -7.45933533 2.65747555
O -7.85992639 -0.99146762 1.00581280
Pu -7.61817917 1.21016645 -5.77291553
O 6.70844036 3.69415342 -4.47927831
O -6.30658205 -8.94796317 1.73456643
Pu -7.50863583 -4.95254880 1.42291422
O -2.39141109 0.36311531 -9.77121228
O 7.27473143 -5.39324644 -3.90616056
Pu -0.99238528 -9.97590902 -3.05719115
O 2.63084745 5.30199029 6.96502335
O 0.31323892 0.13375699 -7.13268957
Pu 0.41499790 -8.39951920 -0.82343817
O 4.06685928 -3.50825372 -1.85808068
O 6.24251187 -4.92822253 5.26264719
Pu 0.91150926 5.92034342 -2.87632860
O 8.98775641 -5.49989601 2.25821204
O 0.33311843 1.04211908 0.14283062
Pu -2.84954756 10.84214644 5.27775573
O -1.73062504 -8.35620752 -7.36465344
O -2.76063455 -2.90311744 -2.91600369
Pu 6.24741609 7.34742939 -0.47087429
O 3.16613465 0.47311887 -8.02908851
O -3.11620994 8.21912266 -6.31327609
Pu -0.31858496 -0.87119427 0.10414639
O -2.65100400 -8.89895774 2.17127474
O -0.75064973 -7.20587138 4.06349300
Pu 5.56706074 4.50164389 -5.89734361
O -0.96095837 3.13644324 -1.20879452
O -4.99645510 4.57729163 3.96664188
Pu -0.90290377 -4.74113394 -0.40467684
O 7.08414714 2.29380297 -6.45409667
O -2.34274463 6.46022983 3.52616720
Pu 5.02087440 -1.04719788 4.53547674
O -4.33656397 -3.11091548 -5.22676260
O -7.45143823 3.59608393 0.20178074
Pu -4.60232692 6.76139514 -6.22225716
O 3.48703914 3.06761003 7.32250735
O 1.08267163 7.13391575 5.73895059
Pu -7.23454587 -5.01956204 5.19971361
O 4.26436970 -8.27928582 -3.69771706
O -8.12174239 -1.11167534 -3.77224590
Pu 1.39894316 -1.45862901 7.54938906
O -5.42204215 5.11881800 -6.85378157
O 1.54751400 -6.28578611 -3.61625625
Pu -1.81512151 4.49472487 -4.95524447
O -8.42156653 -7.45967567 -0.95508103
O 2.85357473 5.15106931 -2.71837179
Pu -6.23181852 2.24198089 -1.33559508
O 7.92538431 7.79533757 -1.34165024
O -3.24259303 -3.87835365 7.61962803
Pu -4.86481705 -7.87800898 2.54829692
O -1.37387579 -9.53945597 -0.78701513
O -0.27413731 -2.98447071 8.42760640
Pu 10.54422348 -1.38652138 1.18421136
O 5.55560559 0.55511690 5.69409977
O -4.30884130 -9.67324816 -1.32498198
Pu 3.15239356 -4.67739837 -7.56702662
O -4.98420760 3.11854920 -3.15434103
O 5.19788648 -8.50566772 -1.59892480
Pu -5.12382851 -4.03011808 -3.49374057
O 1.51578228 -4.16348896 -8.64885791
O 8.81323547 -3.41758585 4.98461946
Pu 4.65819005 4.23497742 5.39152115
O 0.41647302 4.57147531 -4.25556792
O 3.55381653 -5.96020765 4.86550945
Pu -3.56706493 -5.05803622 3.82059169
O 7.08830784 2.52228297 -0.12102809
O 2.80745572 -9.48187525 -0.08331135
Pu -0.03851917 -3.02760190 -7.90018650
O -0.80348986 10.27134200 5.71185462
O -6.78703570 5.75819261 1.33235417
Pu 8.15288634 1.08200064 -0.98255200
O -0.93443153 -4.67488147 10.50305908
O 9.05661304 -0.72049733 -0.43336057
Pu 0.65499337 -4.67365881 9.34362564
O -2.85623620 -5.48223304 -8.02207457
O -3.73245436 -1.39032909 5.49364157
Pu -1.17983001 0.87767180 2.97967570
O -1.49983769 2.37109455 -4.26823254
O 1.91895615 -3.50258228 8.23893645
Pu 9.83204987 -4.06540075 3.26467428
O -1.07682508 4.32750304 4.36758320
O 4.67585885 6.21998065 5.99715517
Pu -3.32569069 -4.04010718 -6.77280214
O 2.19435560 5.21866485 -6.23602135
O 0.88630637 -10.09176975 -2.05772866
Pu -1.20822326 -1.05494179 -10.32213946
O -1.47667213 -6.91661905 -5.60220701
O 9.39176427 2.83911178 -0.52837129
