420
ML-kMC step 8000
Pu 1.61952717 5.48208197 4.15823170
O 2.27654878 0.60658521 7.03808876
O 4.67307922 -2.85923865 -3.99526088
Pu 2.24822884 3.58809045 -4.89695250
O -5.18180561 8.14820086 2.31510291
O 9.26087702 -2.28399704 -3.54343526
Pu -7.61298628 5.61536993 -0.52310617
O 3.06661346 -11.39427227 -1.98540708
O -6.75575381 -3.20260371 -4.84851066
Pu -3.87359957 3.69755915 -7.41881203
O 1.18377161 -6.53580682 5.99291463
O 4.70141947 6.74181380 8.16166247
Pu 4.95375611 -5.43977639 3.51961136
O 2.38807159 2.87380616 0.24193287
O 5.37237641 5.91227043 -4.62311304
Pu -1.43544034 5.30013694 6.01995587
O -5.71631449 0.87132426 -4.99806548
O -4.28101347 1.21335037 -1.40468743
Pu -5.24287908 4.90025295 -3.32851907
O 7.44861167 2.49319236 -2.57792855
O 3.48924770 -0.60805515 3.04476587
Pu 1.77986898 3.78900831 7.79209456
O -4.04044334 1.64095165 -7.65515017
O -6.20279822 6.94774914 -1.16861439
Pu 0.41163330 -5.17079823 -10.11876024
O 2.16246247 7.49513448 -2.47364556
O -5.35037064 3.12175941 7.40914537
Pu 5.87641820 -3.38017973 -1.12425406
O -1.40043619 2.60989017 2.07642169
O -0.19510123 3.51329752 7.34725112
Pu -0.62687017 6.89899745 1.43389098
O 3.95414771 -5.39301306 1.63922227
O 0.72182989 4.24048840 5.60174012
Pu -3.32318113 -0.29803697 -7.81272305
O 1.45894199 -5.99398269 -6.16465349
O 0.68344223 8.73815968 -4.64999961
Pu 0.23066462 3.19018732 0.68153430
O -1.69164737 4.08705162 -8.47831979
O 4.59383504 -3.33872776 4.10506127
Pu 0.15589350 3.72141284 -9.00058437
O -7.02205078 5.23527954 6.94687795
O 0.84848661 -1.38634516 -9.02079033
Pu -3.59682879 -7.32770398 -6.36996704
O -4.28488546 -5.45911255 -5.69542350
O -5.47258904 -5.35285296 4.09440110
Pu -0.94240945 -6.16138466 6.00981130
O 6.34271496 2.19066035 6.61175070
O 1.00691298 -10.97468583 0.64853284
Pu -3.03759793 7.90398035 7.40715466
O -1.94414202 1.94899186 4.75627877
O -9.21198479 5.67354660 0.62724781
Pu 5.00774252 0.91489590 -7.21608019
O 2.99883139 -5.90442950 7.68404434
O 0.38438843 6.83894379 3.35132542
Pu 4.31274322 0.83266158 7.15866415
O -3.68124416 -5.76981415 -3.06364359
O -8.89904097 -4.31982698 0.29113009
Pu 6.97373463 -2.41943170 1.93650247
O 1.67677219 3.78539382 2.66200130
O -0.68299308 6.99434740 -2.19430778
Pu 0.48788313 8.98571603 -2.53587709
O 4.90900160 8.44097555 1.05001419
O -5.86744924 -6.55243925 1.17681741
Pu -1.76657681 6.49871681 -8.22247827
O 4.07197141 6.49499563 0.07498114
O 3.90786439 2.02311309 -9.38732765
Pu 2.16749119 -7.51094888 4.52732203
O -4.41314187 2.57802771 2.54118765
O 1.59979448 9.41867241 -1.00134671
Pu 2.46608878 -4.72746403 6.19678950
O 3.01499744 -1.02533837 -10.07871136
O 0.23194668 -6.85484937 -8.74191840
Pu -8.96926457 4.73469257 4.91443409
O 9.28108838 0.60085225 1.76555740
O 4.44034499 -2.99358228 -7.70545705
Pu -0.95241310 -6.24996839 -3.60886028
O -8.55455741 6.65761556 3.87694605
O -6.93513608 5.30992386 -4.11547855
Pu 5.02594760 5.85246282 2.21526845
O 3.95851282 4.34425799 1.40192313
O -8.30606169 3.11807591 -5.36858915
Pu 11.16613220 2.85622558 -1.25269699
O 6.47334855 4.70187919 6.24896238
O -2.01007129 5.82479189 7.97881357
Pu 3.30234913 1.44270122 -0.92504847
O -0.46565463 -1.44356643 -5.74203340
O -5.59432774 -3.28268611 5.34940082
Pu -0.88718834 0.80910072 -5.73683418
O 3.58591618 5.26671231 4.04372510
O 3.16212985 7.56177578 -4.84511638
Pu -9.91085133 1.38145299 6.56455210
O -9.30338391 3.40738528 6.80915847
O 11.04567193 3.38633466 -3.10869164
Pu -9.49157341 3.72736261 1.29841804
O 5.43672588 5.78804959 -1.77377317
O -3.39514217 4.20971924 5.43942310
Pu -9.07487767 0.14360470 0.76674092
O -9.90846115 4.09305929 3.18061842
O 1.28220089 -8.56391118 -5.40691766
Pu -8.50791202 -5.22180614 -1.57188503
O -2.31977330 -0.34274925 -0.25991598
O 1.95953505 4.76166869 -9.29579304
Pu -1.89618791 -2.80186848 6.39605072
O 4.55183809 1.57705495 1.76510140
O -3.94810901 6.45169509 6.14556303
Pu -4.57148437 7.05488330 0.50602054
O -3.11234104 0.18627714 -5.60021970
O 6.12644550 4.75420782 3.45742789
Pu -0.57152556 8.28824057 4.38861835
O 0.49196225 3.92975143 9.36660034
O 7.72295108 2.16375457 2.66862659
Pu -5.72079698 -1.16554992 5.34798319
O 0.49029627 0.49843795 -10.74936733
O 4.62513290 3.21096720 -1.08552784
Pu 6.69225646 -1.08407594 -3.67732303
O 6.85146099 -5.15891941 -1.28381235
O -2.29066542 6.03044267 -6.26404426
Pu 1.74501008 -9.44428827 1.73616129
O 6.41092058 5.47868606 0.87756333
O 10.62820331 0.97917598 -2.00130864
Pu 9.43424976 3.03353593 1.62204483
O 6.64842666 -4.39757832 2.37854525
O -1.05694605 1.30871290 7.36884820
Pu -3.19114526 -1.16147950 -1.94758536
O -0.09265932 7.59535328 -6.91954492
O -0.42124424 -1.59799622 -11.65922314
Pu 1.65799359 7.23629289 -5.99481381
O -8.91536311 -5.06387324 -3.43553281
O -0.54808477 -11.70009679 -2.42568846
Pu 2.17163232 -2.67085749 -1.33080616
O -7.71872795 0.70695225 -1.02691658
O -4.50985268 -3.91875980 9.34977505
Pu 3.47166929 -9.49033241 -2.23876978
O 6.86908004 -4.19032236 -6.42253235
O -0.66167001 -4.67540457 -2.47485058
Pu 3.03162631 8.32058199 -0.04799048
O 8.37559350 0.13746882 -3.03137921
O 3.99158291 -5.93635891 -6.35948738
Pu 2.83105052 -7.18905115 -4.89720006
O -4.03575759 4.18598482 -5.16601129
O -9.70777711 -0.57768603 -1.16719544
Pu -3.14623640 7.52861392 -2.31346855
O -0.24460144 -5.24576885 1.90242954
O 4.91703640 4.87211493 -7.62244060
Pu 4.70170397 -7.50313274 0.24717050
O 0.95594471 1.73322863 -4.50646346
O -3.18440645 3.65224077 0.26406439
Pu -4.05922612 1.37613352 -3.92104592
O 1.52499182 -4.10264226 -11.34759645
O -5.43967462 -7.21772079 -1.46906471
Pu 6.74399166 -3.57274414 5.86867375
O -4.44152694 -1.82928158 -7.29873054
O 6.03454920 -1.82454100 6.27851200
Pu 6.62925817 6.58223081 7.27435041
O -0.75843381 4.88966944 0.77987416
O -7.93404437 1.59341574 7.19132690
Pu 7.75382139 3.47502017 7.29662045
O -2.46653729 -8.09841703 -3.37435089
O -2.71245180 -2.00412287 8.84712624
Pu 5.94167697 4.00167155 -2.52245571
O -10.32827964 1.80026675 1.02029740
O -1.14609831 -3.77904245 -6.42539800
Pu -0.60005884 -3.06007310 2.98859682
O 6.84999399 -1.22490493 3.74431508
O -4.13893618 5.61180550 -1.49172878
Pu 2.53010818 -2.24363206 2.51162081
O 3.50072749 8.84389910 5.92280742
O 4.81674962 0.05298167 -3.35783934
Pu 3.03385611 2.25832765 3.14221121
O 2.25750143 -2.83551938 -6.45983889
O 8.12027410 2.23801237 8.90015554
Pu 1.11245471 -11.82536371 -1.23384851
O -7.57101785 1.83184499 2.33442567
O -0.04856796 -8.40127404 1.23560525
Pu -6.64182200 -8.09370242 -0.02701404
O -7.06384692 -0.29670845 -6.66015220
O 2.74136856 -3.48119197 1.02810475
Pu 6.64543706 -2.32713696 -7.35483662
O -4.83256672 -8.16310290 -4.78716590
O 0.13716251 -2.35359688 -1.10640048
Pu 6.05301964 -6.82653798 -2.71130483
O 6.71047989 -7.12892057 0.05799836
O -8.02589527 -4.84609219 3.24206447
Pu 3.09262523 4.85141499 -0.35483572
O -10.14475177 -1.72686236 -3.91985921
O -5.73345048 -3.55516424 1.39325601
Pu 0.05726146 -7.42831382 -6.86711698
O 5.77473200 -2.14239732 0.47255988
O -5.70481034 0.97309308 5.21018715
Pu -5.23862664 -3.62769247 7.43736298
O -2.43298153 -6.12258528 0.00747924
O 1.59309042 2.28873716 -8.63226734
Pu 6.05501953 3.03958131 1.86406697
O -6.46749564 -1.88288804 7.17793679
O 4.85132968 7.45321653 3.28670497
Pu -3.42954921 1.57537138 0.49038568
O 1.17938561 5.11990056 -0.79867987
O -0.02399375 -3.36200523 0.78810478
Pu 8.42947129 0.38365422 3.51612672
O 4.89686337 2.82214666 3.76166048
O -0.33730700 6.52200333 -4.51420906
Pu -4.35249443 -5.67658181 -0.37232999
O 1.26342138 -3.67475326 3.36627448
O -6.35233851 4.27681712 -1.76412919
Pu -1.83075436 -0.19427318 8.58007981
O -5.96354895 -1.21513893 3.34209967
O 8.88428857 -0.09940239 5.40761021
Pu 1.98482556 -0.95344383 -7.15823117
O 6.73161852 0.49380785 -4.84998688
O 2.53307201 -9.13593819 3.44853647
Pu 7.94182779 2.06523832 -4.58523465
O -3.79744800 -5.82940950 1.99514010
O -0.51698010 5.63025433 -9.47760390
Pu 2.87040993 7.06424305 6.91928645
O 5.81496192 -0.10190358 8.10071059
O -1.26278661 -0.97897684 2.32514547
Pu 8.83713810 -4.12008092 -2.72391490
O -2.60857892 5.47799270 -3.10966857
O -2.22483422 0.91172516 -2.10958558
Pu -5.23534410 4.85696905 5.89335771
O -6.08559195 -5.30018731 6.66915902
O 1.32295376 7.39181741 1.01848833
Pu 5.72594911 -4.22524640 -4.89450772
O -0.37204081 -1.58252660 6.02776585
O 0.38272380 -0.66118342 8.86451969
Pu 4.23785039 6.85346960 -3.22481808
O -2.85976651 3.23600069 7.57700328
O -6.46161362 -5.22749173 -0.83802642
Pu 2.25310937 0.71469589 -9.60624538
O 1.32458301 -1.16993042 1.40725295
O -7.45569209 0.85598111 -3.13621628
Pu -0.49003752 -2.63217237 -3.89938620
O 6.84711092 7.65886914 5.61735169
O 9.12011471 4.74442839 2.92301103
Pu 7.92853833 4.74265309 4.51807351
O 10.83774407 -1.70767731 -0.72248680
O -1.99188274 1.38166728 9.80116700
Pu 1.94645503 -5.41366239 1.36968639
O 0.10493657 -6.49449734 -0.66720519
O -9.91787073 -0.55839475 7.11370363
Pu -7.25539111 3.39094535 7.75050212
O 8.41935892 5.25917341 6.79932017
O 1.52774977 1.86859187 -2.07805313
Pu 10.22758503 -0.83704494 -2.48754054
O 1.47432852 -2.40722420 -3.42145841
O -4.86471946 0.48653781 1.31613277
Pu -7.27836419 -1.34195678 -1.78499692
O -4.88321186 -1.31231805 -3.62384823
O -1.68677679 3.21169789 -6.40249802
Pu -5.71661071 -1.55773343 1.36545963
O 4.65072497 -6.12412372 -1.51661425
O 8.12208386 2.77100312 5.17554870
Pu -9.43737095 0.30579438 -2.94019395
O 9.38491798 -5.28854948 -1.28897718
O 3.43010656 -0.71903458 -1.34698936
Pu -6.87527926 7.04247502 2.93165504
O -1.92270199 8.77781055 -3.46452904
O 2.20705548 -8.05039505 -1.97757832
Pu -2.44730962 -4.03551838 9.51148053
O -3.76884152 8.97891256 4.79418117
O 4.54796479 8.17850460 -1.69105345
Pu -8.76296480 -3.07876873 -4.13887618
O 11.32375067 2.65952991 0.91722421
O -9.53560334 1.32590860 4.61747071
Pu 3.47588498 3.75118985 -8.48903437
O -0.86944496 -5.52537992 7.85990679
O -3.54210361 -7.15079311 4.25032443
Pu -8.46677624 4.05522867 -3.63790815
O 2.56638627 -6.91974207 0.14067887
O 8.75669262 -1.79542147 2.63953800
Pu 1.51259040 -2.15428189 -11.01648862
O -4.30733876 6.66985006 -4.07168686
O -8.46895915 -3.78869811 5.96985122
Pu -1.44861073 3.11320570 9.09519095
O -4.12843187 -8.00274321 0.25902391
O -1.74838218 -1.90532423 -8.39450346
Pu -2.29249990 4.85958591 -1.07540850
O -1.72936164 9.07005588 3.01879323
O 4.09500011 4.04080853 -4.31426398
Pu -4.04040679 1.85774793 6.52526929
O -4.18139592 -3.81543799 -1.57027107
O -0.80378904 -0.67139393 -3.54658164
Pu -1.39566232 -7.09571645 2.13179743
O -1.71881799 -4.18576800 5.00520250
O -7.91711899 -0.67175032 5.10936326
Pu -0.34326650 2.33999007 5.79400887
O 0.54512930 -4.39695584 5.70844721
O 4.79572321 -7.56560520 2.17488109
Pu 3.40022389 -1.31605419 -3.97497771
O -7.39288482 3.10816175 5.19710945
O -5.33843106 -1.30188579 -0.97314999
Pu 7.34766517 0.09447969 6.70784495
O -4.27450004 5.37702436 1.52240731
O 4.80374325 -5.77954562 -3.95587563
Pu -7.46796832 1.16431282 4.22630436
O 1.39382738 1.07113798 4.01205716
O 6.21281967 -0.45928617 -7.85788234
Pu -8.59940775 -1.94888375 6.42886537
O -8.76764057 4.44058300 -1.59868524
O 8.16666153 -3.17393056 0.29932416
Pu 2.55088964 -6.01947891 -1.80939479
O 10.56575585 -3.10114110 1.78224022
O 6.72921677 -2.08157839 -5.33944371
Pu -1.49231512 8.01805603 -5.24744256
O 7.06105446 -2.69989156 -2.45729588
O -9.42850495 2.29425368 -2.71787183
Pu -4.04659456 7.20292494 4.02015340
O -1.50654954 7.37389052 6.17174216
O -0.25612247 -3.27984948 -9.74817494
Pu -5.61978267 -1.45709173 -5.39090203
O 3.24643185 -0.52005734 -5.79026574
O -3.49022212 0.01987779 7.40608011
Pu -3.07300349 -9.62932730 0.22157948
O -3.56714721 5.88645819 -8.00278744
O -7.97002298 -3.27748241 -2.08737165
Pu -4.34784338 -7.89366804 -2.89874976
O 1.71262758 -4.49659705 -1.03320024
O -2.13546621 7.20033493 0.30990526
Pu -6.28415353 3.60065730 2.32216878
O -0.31200981 -8.04365819 -2.75473893
O -5.93258935 6.74960422 4.56148484
Pu 8.07225454 -5.63285473 0.38866561
O 4.01676844 2.79507653 -6.55650657
O -3.23169177 9.84967173 6.89263411
Pu -0.46349943 1.70097273 -2.49209322
O -2.62594360 -3.48283352 2.81789929
O 3.27173514 -1.25796425 6.07227474
Pu 5.26837486 8.61168391 4.74539365
O -7.38534699 4.69968543 3.58099033
O -3.88967832 8.36706914 -0.73951252
Pu -3.00884630 4.22735354 2.84942235
O 1.39765621 -7.00388289 2.55058125
O -7.63871742 -1.16731426 0.88733678
Pu -7.32880565 1.48058522 -6.01206373
O 6.84922337 3.81141447 -4.39642145
O -6.00662047 -8.84488934 1.66254810
Pu -7.22361861 -4.81376012 1.30684129
O -2.22688989 0.52529751 -9.16130013
O 7.31431835 -5.18276763 -3.77798270
Pu -1.00256267 -9.80817702 -3.14155136
O 2.68705870 5.12925396 6.73136854
O 0.47178989 0.25578701 -7.19002838
Pu 0.42447307 -8.38708831 -0.82585699
O 3.99665560 -3.53962737 -1.72726166
O 6.22630141 -5.31388911 5.22395853
Pu 0.83460033 5.81733443 -2.75888922
O 9.02614544 -5.62678215 2.07555145
O 0.05101068 1.01696572 0.59614579
Pu -2.86360386 10.72172249 5.04028373
O -1.83872751 -8.29741775 -7.05144179
O -2.65995975 -2.89669221 -2.86050093
Pu 6.26144704 7.17603920 -0.57080047
O 3.13221479 0.49996994 -7.88983447
O -3.15437269 8.33577476 -6.31521153
Pu -0.54554767 -1.08611516 0.20219104
O -2.54586443 -8.81284649 2.20777138
O -0.70393346 -7.15506635 4.23347483
Pu 5.74430912 4.42326106 -5.91339126
O -0.78790194 3.39195269 -1.23176424
O -4.84474092 4.53437190 3.76561992
Pu -0.79136608 -4.75087366 -0.39914764
O 6.73113426 2.27095079 -6.20329031
O -2.41461478 6.37884645 3.46185243
Pu 4.85324297 -1.15014887 4.53346351
O -4.16620857 -2.97459125 -5.10916348
O -7.38234061 3.15468209 0.36291408
Pu -4.56313833 6.71486963 -6.08157446
O 3.63871878 3.08430002 7.04706316
O 1.26057224 6.95900379 5.65363583
Pu -7.13191768 -4.94691259 4.92663828
O 4.42707783 -8.06174761 -3.90477489
O -8.03756406 -1.14645314 -3.82133051
Pu 1.34207179 -1.48896916 7.34117046
O -5.54918611 4.92987580 -6.93414206
O 1.54602885 -6.23135546 -3.55319734
Pu -1.88347063 4.51303751 -4.91964864
O -8.13105184 -7.15638344 -0.84152014
O 2.87719956 5.12695942 -2.46501604
Pu -6.19137955 2.31157681 -1.28149962
O 7.95627285 7.65349448 -1.37155886
O -3.09826010 -4.08698299 7.19864328
Pu -4.65551535 -7.68379476 2.55025922
O -1.45389579 -9.51906477 -0.83597513
O -0.41984487 -3.32142904 8.06013511
Pu 10.12077194 -1.38719600 1.02124594
O 5.56559525 0.40090694 5.63552588
O -4.00674035 -9.74440484 -1.62639663
Pu 3.05208107 -4.50280566 -7.25529415
O -5.02300862 2.97749335 -3.19071768
O 5.34745032 -8.57552568 -1.67447198
Pu -4.80823790 -4.11796227 -3.57563442
O 1.51237363 -4.01673143 -8.70938346
O 8.55613890 -3.47300839 4.79448163
Pu 4.70840425 4.22094640 5.39847685
O 0.17540799 4.52016649 -4.29033614
O 3.41117170 -5.84678682 4.67550114
Pu -3.61035619 -4.97911710 3.75590628
O 7.23173692 2.48172535 0.28003489
O 3.03121766 -9.60153721 -0.04797502
Pu -0.02832313 -2.90849740 -7.78623816
O -0.97234588 9.91080416 5.47060890
O -6.68772224 5.63870455 1.39588775
Pu 7.92143523 1.05537493 -1.00603810
O -0.76221191 -4.77867685 10.22610656
O 8.85169609 -0.52326506 -0.32950070
Pu 0.82315585 -4.86597504 8.75181851
O -3.03049901 -5.61876248 -7.68094295
O -3.66853874 -1.72444519 5.55534714
Pu -1.04291296 0.96036897 3.27433761
O -1.90403522 2.58706954 -4.27452325
O 2.20132252 -3.44042781 7.89210571
Pu 9.50093005 -4.08999813 3.20162472
O -1.03241423 4.33079963 4.31325670
O 4.60068403 6.31787499 5.80417817
Pu -3.37556324 -3.87092921 -6.62079876
O 1.83631571 5.12152445 -6.19221578
O 1.06194277 -10.02848654 -1.99900662
Pu -0.96445928 -0.66828318 -10.04936593
O -1.34910014 -6.61451379 -5.68394152
O 9.31514339 2.49031000 -0.40645712
