420
ML-kMC step 1000
Pu 1.44534302 5.55302227 4.33753699
O 2.41220997 0.35327344 7.42680401
O 4.75583747 -2.77146570 -3.74037118
Pu 2.47386434 3.50897839 -5.00343035
O -5.12225708 7.85736163 2.52102750
O 9.86863377 -2.43703211 -2.94060130
Pu -7.79735845 5.56110623 -0.47330317
O 3.06749211 -11.67401899 -2.07288371
O -6.79981415 -2.99448363 -4.79367182
Pu -3.95085021 3.61813678 -7.41323672
O 1.04799449 -6.69702096 5.66393280
O 4.76017789 7.10197965 8.01732880
Pu 5.31422062 -5.65959888 3.67614251
O 2.22861217 2.58283783 0.34119146
O 5.61550012 6.05742730 -4.56208551
Pu -1.41588133 5.47689036 6.22939041
O -5.96413420 0.70341658 -5.00802720
O -4.21191495 1.17755847 -1.38621554
Pu -5.35571446 5.04734621 -3.36789718
O 7.56614563 2.49898676 -2.58853148
O 3.83180261 -0.74646362 3.02260623
Pu 1.68507120 3.88667867 7.98871291
O -4.34262711 1.79930608 -8.07539231
O -6.09077945 7.03049992 -0.93019793
Pu 0.64984431 -5.52799390 -10.31317331
O 2.00580113 7.43962236 -2.48941312
O -5.53877536 2.80538061 7.55897204
Pu 5.94431391 -3.30203652 -1.18206662
O -1.38858654 2.91032338 1.88854164
O -0.18089805 3.58343734 7.48435618
Pu -0.58040746 6.87141124 1.41079834
O 4.36193945 -5.44739410 1.93846143
O 0.81293743 4.12087224 5.78193043
Pu -3.54853872 -0.26217692 -8.16563131
O 1.10449269 -6.21727683 -6.07729525
O 0.59623776 9.23291768 -4.65384241
Pu 0.28147855 3.11679851 0.66923794
O -1.71993500 4.15487393 -8.55033248
O 4.73935842 -3.21111226 3.97250040
Pu 0.31682275 4.13014593 -9.39257127
O -6.42869525 5.35729671 7.55112465
O 0.89977116 -1.42755714 -9.28861456
Pu -3.44280617 -7.70492145 -6.39762869
O -4.50009686 -5.81310186 -5.94598980
O -5.73096100 -5.50534697 4.24802503
Pu -0.80822775 -6.32613633 5.89685707
O 6.13829015 2.39876302 6.52229844
O 0.97409070 -11.56574973 0.79615362
Pu -2.95448952 8.05190084 7.50543444
O -2.07518490 2.21926724 4.94051257
O -9.31102035 5.83742268 0.70853278
Pu 5.24897265 0.97049515 -7.62480200
O 3.40559722 -6.18086730 7.77601820
O 0.38380134 7.19977796 3.40114994
Pu 4.51386301 0.80956342 7.45163591
O -3.98657359 -5.90856038 -3.50914525
O -9.22502245 -4.85325173 0.27455401
Pu 7.33629975 -2.57819988 1.79392113
O 1.66401241 3.89795679 3.17564530
O -0.87153542 7.17906062 -2.36942901
Pu 0.33064245 9.00893844 -2.63944728
O 4.83725149 8.24783479 0.91110663
O -5.95287245 -6.62509616 1.20526175
Pu -1.66956887 6.60120635 -8.21224567
O 4.00361589 6.52324891 -0.24079278
O 4.30564336 1.80650967 -9.43779060
Pu 2.22940576 -7.90620618 4.38672963
O -4.61093065 2.56586932 2.30111392
O 1.73853161 9.52859136 -0.92288155
Pu 2.62277076 -4.93169279 6.45580105
O 2.89098805 -1.13456558 -10.26158028
O 0.39188255 -6.92729298 -8.86341249
Pu -8.99073376 5.10978536 5.07974407
O 9.38503244 0.27630407 1.71001797
O 4.58634191 -3.40933786 -8.33465262
Pu -0.74720363 -6.57848770 -3.92743247
O -8.50671906 6.94818332 4.48485410
O -7.16283567 5.11072503 -4.21544758
Pu 5.03217721 5.88858756 2.15349863
O 4.03435821 4.34334003 1.39973123
O -8.58205702 2.76593856 -5.23070449
Pu 11.36811861 2.73929657 -1.53688652
O 6.41087861 4.64214787 6.55278919
O -2.22458495 6.05775049 8.08890504
Pu 3.55248018 1.11263663 -0.83074647
O 0.00278288 -1.62695271 -5.37169339
O -5.63051376 -3.34305088 5.96686538
Pu -0.97109833 0.92934691 -5.82108358
O 3.65982901 5.35533721 3.77902169
O 2.90698915 7.25906032 -4.71302465
Pu -10.35307028 1.83512117 6.18610160
O -9.71036434 3.74588710 6.56281633
O 11.88811382 3.70182814 -3.13245500
Pu -9.74576173 3.91453113 1.22398365
O 5.52776986 5.93637050 -1.68758636
O -3.20406034 4.52108328 5.66759031
Pu -9.13385074 0.41509568 0.67071884
O -10.20377013 4.14872838 3.17690183
O 1.39025802 -8.80540254 -5.71614889
Pu -9.01334207 -5.71648951 -1.43708878
O -2.27787524 -0.20325340 -0.20918715
O 2.27869053 4.80975710 -9.57398654
Pu -1.61764621 -3.04426136 6.89709052
O 4.63068236 1.83450994 1.83374990
O -3.72654602 6.69690183 6.35174263
Pu -4.53886270 7.26407772 0.38526177
O -3.53872528 0.52355483 -5.80247283
O 6.56731328 4.66933836 3.46890186
Pu -0.57827409 8.70508177 4.40828921
O 0.49977453 4.17870283 9.48542087
O 7.98013607 2.60439260 2.46137332
Pu -5.73697223 -1.07891983 5.42970554
O 0.21409174 0.30482450 -10.79064078
O 4.68870547 3.24792667 -1.07147123
Pu 6.85553771 -0.99994941 -3.72342983
O 6.70944933 -5.19398012 -1.47364514
O -2.24889832 6.05011682 -6.31599976
Pu 1.68700126 -9.74206794 1.67539269
O 6.27845055 5.26145373 0.63975440
O 10.33789471 1.08532611 -2.25230277
Pu 9.61708538 3.35316944 1.33085751
O 7.15394005 -4.64163050 2.63868790
O -1.15016581 1.30816101 7.42214505
Pu -3.32748441 -1.46061506 -1.86296932
O -0.33337109 7.71494115 -7.09918009
O -0.37390895 -1.82885677 -12.05153914
Pu 1.67518195 7.19477040 -6.15881807
O -9.56546176 -4.93559096 -3.47903069
O -0.66426411 -11.96194752 -2.24166445
Pu 2.18761249 -2.61840866 -1.38468435
O -7.30146577 0.48950231 -0.78551506
O -4.49179752 -4.50887665 9.52099411
Pu 3.39313783 -9.69721058 -2.38801550
O 6.54126609 -4.31429436 -6.42950806
O -0.43422310 -4.88531999 -2.27627272
Pu 3.12154795 8.38326155 -0.05763881
O 8.29267104 0.15840461 -2.89681839
O 3.60419081 -6.20965008 -6.41865058
Pu 2.83411486 -7.39803318 -4.81936719
O -4.17821955 3.96385456 -5.35316405
O -9.54489815 -0.17598755 -1.25341029
Pu -3.14516101 7.67019584 -2.51326372
O -0.93919032 -5.18301922 1.99842193
O 4.92605278 5.12963069 -7.84456219
Pu 4.91329561 -7.91893484 0.33138700
O 1.01663479 1.80413875 -4.55254650
O -3.17759035 3.48433845 0.33842588
Pu -4.27898211 0.94198373 -3.92704342
O 1.50050515 -4.30957189 -11.63309853
O -5.60370722 -7.49019021 -1.48352807
Pu 7.45123705 -3.09713764 5.86949028
O -4.54821917 -1.69332985 -7.16330468
O 6.47193998 -1.43543022 6.51389482
Pu 6.51530965 6.57569009 7.19704348
O -0.74906387 4.96615857 0.96453682
O -8.27040005 1.87338773 7.29654629
Pu 7.80848808 3.70898365 7.67212918
O -2.34900480 -8.47846391 -3.23547945
O -2.46484923 -2.10023173 9.17272614
Pu 6.04625921 4.05465749 -2.50581078
O -10.20451019 2.07417849 1.04913709
O -1.09864219 -4.07899842 -6.63194687
Pu -0.58427189 -3.13635851 2.99196005
O 7.36463991 -1.00696063 4.43893101
O -4.14817741 5.86490264 -1.51145166
Pu 2.62271504 -2.35136167 2.55026690
O 3.59455334 8.64910099 5.65716135
O 5.21422171 0.07717454 -2.88668934
Pu 3.07699806 2.16638139 3.17207220
O 2.42446589 -2.97006467 -7.06019102
O 8.24251866 2.81447127 9.36943674
Pu 1.17592214 -12.13041537 -1.22034576
O -7.73928677 2.00243934 2.55223268
O -0.00266123 -8.83638583 1.03181424
Pu -6.86369907 -8.32035027 -0.13434138
O -7.43595781 -0.47821376 -6.70231335
O 3.02903969 -3.72999490 1.00083274
Pu 6.57731224 -2.57144718 -7.33829428
O -4.40022651 -8.73830233 -4.84058154
O -0.10594949 -2.27425515 -1.20528980
Pu 5.95930263 -7.18680121 -2.72560130
O 6.84342893 -7.29607533 -0.00411113
O -8.08221960 -4.74545904 3.34192525
Pu 3.19625050 4.79113979 -0.58818691
O -10.32407231 -1.55840184 -3.73779953
O -6.04707156 -3.66221780 1.16288198
Pu 0.09723745 -7.64973801 -7.03131237
O 6.14588861 -1.79893354 0.49129298
O -5.67885554 0.98084437 5.14788795
Pu -5.45100739 -3.98323736 7.82319464
O -2.40280849 -6.42441160 0.19439440
O 1.57385746 2.57239182 -8.78456041
Pu 6.05800391 3.27151231 1.67547736
O -6.94649089 -1.78759231 7.32998092
O 4.86248505 7.50046375 3.18022472
Pu -3.41901592 1.44534773 0.53900124
O 1.30538047 5.19420830 -0.92295784
O 0.19046905 -3.40135671 0.95372702
Pu 8.41070720 0.61316284 3.53914325
O 4.83200478 2.88570130 4.01120370
O -0.12056457 6.71459747 -4.85656110
Pu -4.54502465 -5.79812198 -0.36872327
O 1.26329024 -3.72672355 3.37404493
O -6.60470243 4.32910712 -1.74480271
Pu -1.85808481 -0.09997890 8.88296584
O -6.24188967 -1.38281468 3.59426364
O 9.11257971 0.31266964 5.38055445
Pu 2.15005397 -0.92496549 -7.23280830
O 6.58840734 0.25172798 -5.32340301
O 2.43333738 -9.60880268 3.52548769
Pu 7.97863150 2.13918865 -4.55843227
O -3.58483521 -6.42324010 2.12909443
O -0.12149955 5.97373958 -9.21789443
Pu 3.06953653 7.24963427 6.96776948
O 6.24564941 0.77633926 8.38824979
O -1.58517750 -1.03361238 1.89818118
Pu 8.68960439 -4.24170103 -2.76712588
O -2.50713810 5.56900317 -3.05418640
O -2.26388536 0.66637855 -2.18689856
Pu -5.08013481 5.00852611 6.06899371
O -6.44722673 -5.62952143 7.22006633
O 1.29781570 7.43753743 0.93627706
Pu 5.67312106 -4.31149606 -4.56918658
O -0.34274413 -1.69725341 6.16520349
O 0.03503782 -0.66456346 9.15376647
Pu 4.34013609 7.07813978 -3.32169533
O -2.76937546 3.14254889 7.60947807
O -6.82157705 -5.67320189 -0.84418408
Pu 2.02090121 0.65932667 -9.70919311
O 1.33013780 -1.08691922 1.23414975
O -7.52893838 0.92380292 -3.15246105
Pu -0.58797702 -2.58287809 -3.74173102
O 6.89719849 7.90726391 5.80571710
O 9.24443076 4.71332342 2.94063742
Pu 8.08336193 4.79545016 4.65845918
O 11.66468798 -1.31309744 -0.36063243
O -2.41138320 1.45913089 9.98464010
Pu 2.32403871 -5.71902255 1.61970057
O -0.16267144 -6.56931523 -0.80696891
O -10.35118398 -0.17618539 6.65250041
Pu -7.29289516 3.58027068 7.83886039
O 8.27433297 5.82661697 7.09247788
O 1.88196680 1.16498821 -2.21080915
Pu 10.69059149 -0.84169052 -2.15226356
O 1.34506163 -2.26505286 -3.42743606
O -4.50401966 -0.18777973 1.33988713
Pu -7.44003558 -1.39972728 -1.77355982
O -5.07284753 -1.52081254 -3.62548720
O -2.17857141 3.05601948 -6.42227171
Pu -5.85484124 -1.65395983 1.52372367
O 4.50029938 -6.07059574 -1.68383448
O 8.66638322 3.26340332 5.80680065
Pu -9.68881879 0.25463156 -3.12945280
O 9.29116013 -5.06924702 -1.15309644
O 3.50773947 -1.21698407 -1.35293489
Pu -7.00653693 7.05222778 3.13849421
O -1.95538285 8.92440835 -3.51194554
O 1.91766092 -8.42597299 -2.36397285
Pu -2.65289854 -3.98752511 9.67955032
O -3.59375944 9.07182235 4.79037474
O 4.60304153 8.16700285 -1.55387423
Pu -8.86604640 -3.27126499 -4.11524258
O 11.49144932 2.71761872 0.70868732
O -9.41243349 1.53501340 4.52370045
Pu 3.58381970 3.76039207 -8.54511279
O -0.68125519 -5.43877604 7.73510157
O -4.14250843 -7.08402297 4.20800878
Pu -8.63224631 3.97414666 -3.48225739
O 2.81674426 -7.10073861 0.19255409
O 9.05271583 -2.30284295 2.75852388
Pu 1.53991829 -2.24074163 -11.35548182
O -4.12927693 7.32807592 -4.25194392
O -8.79130745 -3.84106851 5.92688156
Pu -1.49981414 3.21484246 9.25169039
O -4.50838799 -8.22124659 0.51646893
O -1.80153750 -1.83614274 -8.39448500
Pu -2.55583304 4.85958105 -1.03413244
O -1.78963426 9.99808632 3.47565959
O 4.34087862 4.17147562 -4.39453421
Pu -4.07522302 1.74448710 6.77329347
O -4.12749046 -3.87207886 -1.46739578
O -0.86449188 -0.60289127 -3.55630711
Pu -1.55648889 -7.12647150 1.96216884
O -1.49896134 -4.52164958 5.12826188
O -7.79044358 -0.65223228 5.14298632
Pu -0.34862828 2.38181794 5.93635387
O 1.07479114 -3.55324614 6.22850825
O 4.65622777 -7.60336064 2.32909503
Pu 3.28202669 -0.97489319 -3.91168842
O -7.34606779 3.49814933 5.33176092
O -5.59824279 -1.44193799 -0.83307421
Pu 7.40643006 0.64130033 6.68109803
O -4.31987616 5.59896567 1.58599268
O 4.98066160 -6.08105504 -4.14516789
Pu -7.53620751 1.16783677 4.33577717
O 1.36901226 1.20141605 4.20800183
O 6.35571618 -0.79115449 -7.98755987
Pu -8.86832027 -1.83672497 6.29439614
O -9.24503728 5.04906355 -1.88942869
O 8.57820387 -3.47971927 0.53833303
Pu 2.45850073 -6.07186685 -1.85641921
O 11.10408499 -3.07920239 2.13327780
O 6.69993000 -2.37358665 -5.26543635
Pu -1.40772468 8.31438981 -5.47165550
O 7.28681788 -2.79648001 -2.45547401
O -9.35756783 2.32708498 -2.53746441
Pu -4.00278192 7.25241701 4.25357826
O -1.39496443 7.61426183 6.05015907
O -0.18301407 -3.18538283 -9.94164338
Pu -5.90990246 -1.46350120 -5.72561732
O 3.38040590 -0.41346389 -5.80428370
O -3.68435203 -0.04738086 7.66675958
Pu -3.10021434 -9.72795593 0.42506171
O -3.58468450 6.63937641 -8.16222996
O -8.31595418 -3.14253817 -2.10705584
Pu -4.24166494 -8.18741323 -2.79902651
O 1.70247478 -4.50119030 -1.03832681
O -2.25043998 7.04470550 0.20723136
Pu -6.46960798 3.99891172 2.47670389
O -0.27776783 -8.27933164 -2.86588143
O -5.76864324 6.93433102 4.94455964
Pu 8.25701265 -5.64262768 0.54243190
O 4.19947439 2.59441620 -6.89368298
O -3.73121396 9.95236233 7.13015764
Pu -0.32482833 1.57309314 -2.53723651
O -2.52321914 -3.37868225 2.95509254
O 3.56969701 -1.25462815 5.94679262
Pu 5.47186998 8.53418228 4.67545976
O -7.87291874 4.92780887 3.41490830
O -3.90802417 8.69404847 -0.95536597
Pu -2.73021668 4.28945485 2.79104792
O 1.82492578 -7.60108204 2.40448393
O -8.04842417 -1.13006512 1.05210656
Pu -7.65518507 1.17544013 -5.75725388
O 6.74140306 3.70862009 -4.46523919
O -6.27517238 -9.12359516 1.64091080
Pu -7.56844159 -5.02937713 1.24267297
O -2.63216616 0.30861504 -9.85466267
O 7.35500599 -5.40530718 -3.88554890
Pu -1.01027540 -10.13128142 -3.11493648
O 2.66658860 5.33216090 7.18946278
O 0.30321593 0.12237949 -7.14653987
Pu 0.46090136 -8.41755771 -0.84936255
O 4.10785473 -3.52861380 -1.84155781
O 6.35299637 -4.72833443 5.26443503
Pu 0.91520332 5.91750082 -2.89095787
O 9.31490865 -6.01789860 2.21443350
O 0.43519489 1.03428876 -0.09454645
Pu -2.97949515 10.83041131 5.30779476
O -1.73663629 -8.47812799 -7.56090532
O -2.75361883 -2.92189574 -2.94698772
Pu 6.16433884 7.40173195 -0.45781944
O 3.17809596 0.50658467 -7.99478056
O -3.02218227 8.24100030 -6.51458869
Pu -0.32510968 -0.85779746 0.08922523
O -2.54385690 -8.94139448 2.08850423
O -0.80623794 -7.25558796 3.97140558
Pu 5.70693810 4.55968231 -5.96920713
O -1.20515061 3.37932016 -1.04073307
O -5.04204903 4.91727575 4.14142496
Pu -0.92561945 -4.47332730 -0.26565783
O 7.10243831 2.11086382 -6.60257085
O -2.30503313 6.49102996 3.51802845
Pu 5.04308723 -1.15095939 4.52202630
O -4.37443805 -3.28915115 -5.37040276
O -7.71529660 3.64636069 0.19801002
Pu -4.51169939 6.87155880 -6.17900157
O 3.42296477 3.01336966 7.32287569
O 1.02351745 6.73631646 6.06790293
Pu -7.28222293 -4.92836524 5.29538026
O 4.14318868 -8.14616893 -3.47567822
O -8.21078966 -1.12214120 -3.93276675
Pu 1.38275709 -1.48086202 7.53257523
O -5.34018213 5.11314613 -6.71647380
O 1.50581719 -6.28152274 -3.65200072
Pu -1.79835612 4.48032365 -4.96291945
O -8.55464126 -7.60688391 -0.69173257
O 2.83994377 5.16263094 -2.73318880
Pu -6.42514968 2.12469625 -1.40616727
O 7.81512736 7.97853994 -1.37516316
O -3.30838362 -3.95428815 7.52088879
Pu -4.91856160 -7.92719567 2.63519754
O -1.45644358 -9.55878467 -0.62049359
O -0.30162065 -2.96695239 8.45056525
Pu 10.50128348 -1.42943874 1.32187007
O 5.54057669 0.45746879 5.87765022
O -4.70519745 -9.90645334 -1.29311207
Pu 3.08382373 -4.67997543 -7.60181621
O -4.98791742 3.12261396 -3.15847760
O 5.43463466 -8.93119313 -1.42222665
Pu -5.09895776 -4.03161172 -3.53550620
O 1.70704543 -4.44688798 -8.93322983
O 8.99886759 -3.65110744 4.88908854
Pu 4.73271115 4.17573596 5.53015881
O 0.36026177 4.57768711 -4.30499965
O 3.48892191 -6.14896967 4.97730592
Pu -3.86676868 -5.07334725 4.02918972
O 7.02296286 2.59329302 -0.16290679
O 2.87166861 -9.53770754 -0.10537508
Pu -0.01530411 -3.04771646 -7.92366106
O -0.93360932 10.28119120 5.62932005
O -7.00063711 5.65487667 1.26959708
Pu 8.14660728 1.11024012 -0.96547884
O -1.15780060 -4.80221760 10.54344878
O 9.31193873 -0.63928918 -0.42145995
Pu 0.55569532 -4.52820649 9.30131539
O -3.12895763 -5.56131890 -8.25058360
O -3.50478347 -1.10851244 5.25656425
Pu -1.25928612 0.68279471 2.96634285
O -1.47103898 2.53845914 -4.37743239
O 2.05905810 -3.56946521 8.34164611
Pu 9.90226056 -4.20927387 3.25926491
O -1.03325453 4.51592302 4.43768747
O 4.69050466 6.20098289 5.96023057
Pu -3.33967577 -4.34598338 -6.65508072
O 2.40567579 5.13464424 -6.24060507
O 0.80894389 -10.25257999 -2.07587201
Pu -1.12474163 -1.04530699 -10.33919781
O -1.67761280 -6.92186250 -5.65779974
O 9.63301841 2.92132959 -0.60514775
