420
ML-kMC step 4000
Pu 1.45738217 5.55986361 4.40795014
O 2.46987473 0.14735626 7.72823059
O 4.50596969 -2.64657779 -3.94043805
Pu 2.23474125 3.40896571 -4.82914134
O -5.01519864 7.72680673 2.43461061
O 9.64272904 -2.49869413 -3.20463526
Pu -7.55007057 5.55763700 -0.59106729
O 3.03187370 -11.55038914 -2.30200185
O -6.96284643 -3.03974076 -4.98540349
Pu -3.90397127 3.71535844 -7.39437097
O 1.26185198 -6.59110355 5.85020805
O 4.92292877 7.03245758 8.15662306
Pu 5.03674232 -5.46439770 3.59888348
O 2.48709301 2.93423304 0.03982731
O 5.74430927 6.11899899 -4.46419230
Pu -1.45283080 5.45792454 6.33985283
O -5.86119061 0.60680729 -5.02454954
O -4.20317844 1.15633735 -1.38495487
Pu -5.29906411 5.00448078 -3.44629064
O 7.41952089 2.45455529 -2.51532401
O 3.61549416 -0.72156023 3.06612928
Pu 1.71160338 3.86963899 8.11118382
O -4.32932485 1.66945377 -7.65785290
O -6.14259845 6.89598633 -0.90835843
Pu 0.49002768 -5.32889620 -9.97713926
O 2.13173751 7.44738897 -2.52198487
O -5.33443027 2.91407076 7.60595641
Pu 5.90662901 -3.31650181 -1.24476969
O -1.42576903 2.79343646 1.94868652
O -0.25051991 3.62649891 7.54002027
Pu -0.56947499 6.82690321 1.45328028
O 4.18942886 -5.34634869 1.86432196
O 0.75813820 4.14344638 5.75259452
Pu -3.45537988 -0.24606202 -7.90842330
O 1.23633549 -6.05171626 -5.99612555
O 0.60801521 9.03566913 -4.80172606
Pu 0.36606170 3.21118342 0.68337256
O -1.62254755 4.05647543 -8.51285277
O 4.62570267 -3.26234172 4.06538321
Pu 0.21317388 3.80748745 -9.26026779
O -6.69582771 5.20830034 7.42524740
O 0.84356698 -1.30107793 -9.01754637
Pu -3.32299782 -7.33583880 -6.28476306
O -4.25837690 -5.50753785 -5.81010747
O -5.46083753 -5.36918208 4.06308121
Pu -0.78532770 -6.14768788 5.92045842
O 6.15187982 2.35909426 6.54648775
O 1.41701055 -11.42566481 0.74618672
Pu -2.97248638 7.90568208 7.47787181
O -2.03743793 2.16260033 4.92484840
O -9.24057261 5.76820736 0.53924223
Pu 5.06589485 0.92742840 -7.46792219
O 3.42007998 -5.97703243 7.71285122
O 0.39814342 7.05577554 3.45223164
Pu 4.33680981 0.77247135 7.33659348
O -3.95644343 -5.78101186 -3.34291950
O -9.00297917 -4.60046248 0.32165885
Pu 7.18713696 -2.57724564 1.82229276
O 1.63998408 3.76906038 2.64331425
O -0.69841698 7.14814866 -2.26383325
Pu 0.16273958 9.16687018 -2.58024862
O 4.74963424 8.33249981 1.02804015
O -5.88153276 -6.67855260 1.14971741
Pu -1.64470084 6.55726970 -8.16880311
O 3.99058940 6.50851645 -0.23727852
O 4.12965308 1.90757695 -9.47324486
Pu 2.23682428 -7.53788176 4.40021064
O -4.51470238 2.54179886 2.31471988
O 1.78941749 9.51735609 -0.93412847
Pu 2.57715476 -4.59771043 6.40334158
O 2.91772369 -1.12957777 -10.11717401
O 0.73461482 -6.83461815 -8.71403018
Pu -9.05818459 4.85653604 4.83988926
O 9.20774245 0.51031599 1.85100119
O 4.66175764 -3.17930958 -8.04045234
Pu -0.99971147 -6.33461540 -3.63225215
O -8.50652911 6.96160217 4.36914010
O -7.04589156 5.02219348 -4.31256815
Pu 5.00434131 5.85216066 2.14369878
O 4.03680726 4.38204300 1.41333941
O -8.39322658 2.99329422 -5.24843089
Pu 11.39392359 2.78138921 -1.45648638
O 6.27562149 4.72241021 6.49638893
O -2.00923603 6.05079600 8.22632652
Pu 3.52202878 1.13652760 -0.99062723
O -0.31643815 -1.55325619 -5.67944179
O -5.86984893 -3.34311485 5.68854293
Pu -0.93504752 0.88472260 -5.81340722
O 3.64710412 5.32616326 3.82096476
O 3.10736248 7.66865222 -4.72664382
Pu -10.18225205 1.54495715 6.29232117
O -9.38407543 3.54474705 6.48736657
O 11.67656027 3.67294088 -3.14923658
Pu -9.58522635 3.82715047 1.25142269
O 5.56005580 5.84507709 -1.75555343
O -3.20438949 4.61924849 5.67148449
Pu -9.17633909 0.35888747 0.71525624
O -9.92360706 4.13198919 3.12523754
O 1.68161914 -8.66446831 -5.70063462
Pu -8.62676549 -5.44034744 -1.56716463
O -2.23561004 -0.31071163 -0.35906665
O 2.07338692 4.64194262 -9.50689990
Pu -1.59022411 -2.97775948 6.64708716
O 4.65655530 1.75105070 1.79592819
O -3.76234034 6.61569972 6.23323294
Pu -4.58275441 7.20783097 0.43620021
O -3.21817181 0.16838173 -5.55011419
O 6.39678880 4.69075749 3.67533560
Pu -0.63037473 8.62237684 4.45261680
O 0.26917493 4.23047569 9.47865906
O 7.80457550 2.51295490 2.63244895
Pu -5.78519278 -1.16978339 5.39699099
O 0.34174989 0.50379975 -10.54037915
O 4.71975793 3.20388179 -1.08567492
Pu 6.91986775 -1.06441802 -3.81774560
O 6.72400206 -5.24359602 -1.34680076
O -2.13238659 6.11632630 -6.23176395
Pu 1.64092873 -9.71930926 1.78561649
O 6.44142452 5.64241645 0.86464972
O 10.37119892 1.08898037 -2.05277427
Pu 9.47823262 3.38827570 1.40659789
O 6.81072248 -4.38918022 2.39830704
O -1.07197258 1.19659397 7.46984253
Pu -3.27107724 -1.38963056 -1.80032100
O -0.12681274 7.76702632 -7.07090498
O -0.25776999 -1.89125056 -11.88592283
Pu 1.69467123 7.27020109 -6.00463721
O -9.11063708 -5.03113985 -3.49072609
O -0.71416483 -11.73152721 -2.35007280
Pu 2.18149457 -2.63465384 -1.38527699
O -7.35327050 0.68668124 -0.89816348
O -4.57525288 -4.11356588 9.53455797
Pu 3.57763866 -9.65840957 -2.38300764
O 6.73896626 -4.37353077 -6.58992405
O -0.50814850 -4.81113468 -2.38384184
Pu 3.13271159 8.40251285 -0.00435042
O 8.51932090 0.03697827 -3.02216249
O 3.83583670 -5.95035488 -6.27209010
Pu 2.90667581 -7.33635869 -4.84164837
O -4.16025199 4.17203926 -5.28165469
O -9.67997202 -0.53837946 -1.10575869
Pu -3.16695246 7.56154487 -2.50662941
O -0.38907205 -5.20408116 1.95167321
O 5.12887368 5.19907214 -7.82584614
Pu 4.61258590 -7.64346985 0.21826134
O 1.01559052 1.70650456 -4.39713550
O -3.11165873 3.59106797 0.35470695
Pu -4.28674380 0.92369463 -3.92303777
O 1.61220006 -4.20782307 -11.16717929
O -5.47166315 -7.29095868 -1.44695245
Pu 6.95960825 -3.22224043 5.80135383
O -4.63364065 -1.84628127 -7.48284451
O 6.22863473 -1.56100325 6.42899794
Pu 6.55542435 6.55460249 7.13250661
O -0.86860090 4.82193565 0.74468088
O -8.12907840 1.61151744 7.37133600
Pu 7.59662496 3.51603491 7.43238796
O -2.38043108 -8.22326719 -3.37054513
O -2.42244747 -2.12495802 8.68509813
Pu 5.98758234 4.01237551 -2.43424105
O -10.33595931 1.91191722 0.86478520
O -1.16468303 -3.77771754 -6.47085847
Pu -0.61087131 -3.07221178 2.99146216
O 6.97192413 -1.02144484 3.91298863
O -4.17277651 5.80942006 -1.53292697
Pu 2.56617905 -2.25503262 2.55316435
O 3.73881996 8.76776986 5.76890051
O 5.15029750 0.14296715 -3.09982842
Pu 3.03954482 2.17297094 3.15601402
O 2.38434874 -2.84331715 -6.69568323
O 8.20407688 2.60274162 9.10809853
Pu 1.16347753 -11.93584503 -1.29589105
O -7.52889101 2.00292071 2.33712678
O -0.18602533 -8.78914449 1.11007222
Pu -6.61070474 -8.15033233 -0.12942153
O -7.27883817 -0.49536492 -6.63911022
O 2.93012480 -3.69450822 1.04854152
Pu 6.79239657 -2.42702346 -7.40646140
O -4.39894791 -8.40797527 -4.87254482
O 0.03864511 -2.34453340 -1.16645270
Pu 6.01296195 -7.00776344 -2.77533590
O 6.61952690 -7.06020659 0.13294717
O -7.82060468 -4.46311468 3.35408770
Pu 3.20493669 4.79876393 -0.54216349
O -10.24157578 -1.57889904 -4.10734626
O -5.87053166 -3.65675082 1.23753561
Pu 0.13655266 -7.65315978 -6.90352391
O 6.01911109 -1.83494599 0.44370794
O -5.68967668 0.99829148 5.14166394
Pu -5.34637915 -3.82600856 7.64515763
O -2.41044623 -6.08832466 0.05711353
O 1.64685703 2.44448723 -8.81489643
Pu 6.13517673 3.22763373 1.67040493
O -6.69437217 -1.77526476 7.31670991
O 4.84569360 7.54265191 3.25829916
Pu -3.54012084 1.57208450 0.51519950
O 1.33063096 5.00718270 -0.91210772
O 0.20174758 -3.34958193 0.69140715
Pu 8.37031005 0.53066059 3.56950584
O 4.78763493 2.95101275 4.01856638
O -0.07829822 6.73302563 -4.84193881
Pu -4.41829778 -5.70848899 -0.31174165
O 1.26605206 -3.43001709 3.45142133
O -6.39253958 4.29243459 -1.81759018
Pu -1.96920293 -0.26617404 8.65246871
O -6.09698148 -1.28368976 3.48318249
O 9.15174272 0.41071707 5.36534825
Pu 2.04954941 -0.80392708 -7.29208547
O 6.82971466 0.52691233 -5.06101673
O 2.45062807 -9.37211508 3.46917329
Pu 7.97556408 2.15253792 -4.45597256
O -3.70061448 -6.08405413 2.11696630
O -0.43517363 5.87429041 -9.52798985
Pu 2.87897234 7.34699668 7.12756468
O 6.21910130 0.36263964 8.37574868
O -1.52106822 -0.94399805 2.18912854
Pu 8.73372791 -4.23543421 -2.80697838
O -2.47922090 5.59917274 -3.02036625
O -2.20418550 0.84738558 -2.16528748
Pu -5.10012300 5.04347070 6.03696593
O -6.45748089 -5.39779031 7.07823730
O 1.27427191 7.64609040 0.94040273
Pu 5.77864306 -4.18221500 -4.74409514
O -0.21996343 -1.65487997 6.15202619
O 0.22471788 -0.58399598 8.89253716
Pu 4.20642285 6.88704890 -3.21870830
O -2.79539364 3.40454103 7.40005249
O -6.60453440 -5.30673624 -0.81642844
Pu 2.28914359 0.72097420 -9.77365164
O 1.38640607 -1.05841303 1.26888946
O -7.43746528 0.89582102 -3.09145641
Pu -0.48621115 -2.63222707 -3.89789178
O 7.19065047 7.69668948 5.52043491
O 9.14802087 4.59410935 2.84352938
Pu 8.09606751 4.83960863 4.52159315
O 11.16737344 -1.43359758 -0.63692499
O -2.33957008 1.43395252 9.91246125
Pu 2.16322394 -5.58242924 1.43520107
O -0.14350660 -6.51640072 -0.75259662
O -9.90338654 -0.20488813 6.98660227
Pu -7.28156572 3.41216898 7.72713669
O 8.21419778 5.48426073 6.89738213
O 1.92312730 1.27069493 -2.26090396
Pu 10.36049759 -0.85786086 -2.48709895
O 1.34557462 -2.31846843 -3.45901800
O -4.76778405 0.12762989 1.30401961
Pu -7.42352069 -1.34643023 -1.72976649
O -4.82489966 -1.42260383 -3.38332615
O -1.84759522 3.08796005 -6.42579733
Pu -5.77661899 -1.63473796 1.38168193
O 4.56224246 -6.05933265 -1.57070978
O 8.27302839 2.87123865 5.42352363
Pu -9.55266392 0.26614763 -3.04450228
O 9.18937502 -5.14112155 -1.10058288
O 3.67078717 -1.07187677 -1.47774349
Pu -6.89397254 6.97187259 3.10807410
O -1.95326459 8.85743889 -3.52695874
O 2.25145092 -8.08098001 -2.11550028
Pu -2.57894491 -3.89520336 9.75859633
O -3.60384638 8.92591508 4.70293293
O 4.53905692 8.22304597 -1.70824018
Pu -8.83420592 -3.21446591 -4.24775408
O 11.23874537 2.77731065 0.65806273
O -9.37262138 1.46534557 4.55607624
Pu 3.68299149 3.74048040 -8.68488874
O -0.51588387 -5.18361146 7.87548946
O -3.82335795 -7.08820659 4.41335284
Pu -8.53321343 3.98443216 -3.55731107
O 2.68788157 -7.04822704 0.07455895
O 8.91367712 -2.07538650 2.63086091
Pu 1.51077847 -2.19205248 -11.12227588
O -4.33622874 7.14444480 -4.24468122
O -8.60275817 -3.65259136 5.82854986
Pu -1.63111971 3.08852921 9.24758214
O -4.13958939 -7.99657652 0.26884332
O -1.84048831 -1.86822872 -8.35121996
Pu -2.22008637 4.84224120 -0.99427933
O -1.92990284 9.67597873 3.44467539
O 4.18876040 4.04290141 -4.39986276
Pu -4.10987722 1.85479573 6.50229113
O -4.14617087 -3.79755195 -1.47139677
O -0.80071378 -0.65298441 -3.53156819
Pu -1.36940404 -7.12775636 2.00137038
O -1.55299139 -4.46047220 5.14592105
O -7.83598511 -0.60753938 5.08646654
Pu -0.30534323 2.38219105 5.95706394
O 0.81430125 -4.15987553 5.67767238
O 4.62133802 -7.56228101 2.13251611
Pu 3.30678395 -1.07591735 -3.95284194
O -7.33572217 3.14504887 5.31672265
O -5.65163062 -1.44548146 -0.89264567
Pu 7.49095131 0.29920884 6.77020541
O -4.31169641 5.52123386 1.52826234
O 4.93210856 -5.89517077 -4.15877847
Pu -7.34636349 1.28324390 4.21263302
O 1.37003410 1.14180239 4.10335972
O 6.22545558 -0.63110067 -7.89276119
Pu -8.66200105 -1.84055716 6.54356794
O -8.99981012 4.91414029 -1.82920777
O 8.51363832 -3.31645143 0.42030179
Pu 2.53305143 -6.04383969 -1.80225936
O 11.00405134 -3.06005304 1.94867701
O 6.91116966 -2.25091953 -5.39408926
Pu -1.34449836 8.30917721 -5.43033657
O 7.24543528 -2.75117243 -2.56152810
O -9.40006659 2.31934115 -2.84489996
Pu -4.09906518 7.18642941 4.05428097
O -1.36692620 7.57312859 6.08150007
O -0.30260886 -3.35011080 -9.89014338
Pu -5.81206006 -1.47509084 -5.56807535
O 3.31013783 -0.44080917 -5.77539607
O -3.65594013 0.17770403 7.59392461
Pu -3.12864635 -9.67687227 0.34541903
O -3.54168393 6.34608610 -8.32933037
O -8.30708238 -3.13508808 -2.01626516
Pu -4.46835158 -8.03692972 -2.88820090
O 1.70502115 -4.49202119 -1.03589109
O -2.11549686 7.11748634 0.19352944
Pu -6.42877615 3.75484406 2.33157427
O -0.24907175 -8.12568896 -2.73690173
O -5.76240084 6.66584058 4.88087077
Pu 7.99176104 -5.64216674 0.39747842
O 4.12487998 2.81396961 -6.78533580
O -3.37528624 9.72709245 6.99883094
Pu -0.32881960 1.57180934 -2.48632359
O -2.51078461 -3.88783824 2.62706013
O 3.50083131 -1.31633806 6.11240709
Pu 5.35978699 8.67737054 4.73969930
O -7.70726245 4.73574926 3.37201364
O -3.88539370 8.51642113 -0.93111088
Pu -2.86310003 4.33120765 2.79269509
O 1.74938643 -7.25246998 2.53792575
O -7.87739288 -1.00917214 1.03925898
Pu -7.61728673 1.21678596 -5.78554435
O 6.65381368 3.65535247 -4.40345922
O -6.30321789 -8.97186796 1.74830850
Pu -7.39129145 -4.82581980 1.41760318
O -2.31140381 0.38304399 -9.43679136
O 7.35933097 -5.28947921 -3.93966636
Pu -0.98985259 -9.86496861 -3.05910073
O 2.64595897 5.33781572 6.94890642
O 0.29687604 0.28826675 -7.13525950
Pu 0.43836607 -8.41294110 -0.78948629
O 4.07044549 -3.51071119 -1.85639742
O 6.23124801 -4.91957176 5.23829401
Pu 0.92354955 5.91787563 -2.88385813
O 9.02831611 -5.62082336 2.24013284
O 0.39497376 1.06862513 0.12107543
Pu -2.74714806 10.60352933 5.17191388
O -1.66647310 -8.32759586 -7.39667290
O -2.76063455 -2.90311744 -2.91600369
Pu 6.21594437 7.34917697 -0.46203818
O 3.14752657 0.57396836 -8.04997099
O -3.18987557 8.29963189 -6.16134656
Pu -0.32371118 -0.88970742 0.05654527
O -2.63601198 -8.87716560 2.11800980
O -0.80807802 -7.17851737 4.22841002
Pu 5.56698972 4.50171332 -5.89732127
O -0.90425706 3.14237233 -1.16174567
O -5.03542670 4.61032207 3.89193607
Pu -0.90771629 -4.73888789 -0.40763113
O 6.94535452 2.35151074 -6.43705457
O -2.35116030 6.45278280 3.51102499
Pu 4.92789979 -1.03410877 4.58364453
O -4.32582573 -3.05120291 -5.16361593
O -7.43690084 3.61009771 0.20720624
Pu -4.60332320 6.77303007 -6.22591625
O 3.46415555 2.98870272 7.32559980
O 1.18032911 7.10650135 5.72262814
Pu -7.14808038 -4.95558883 5.15702394
O 4.39520942 -8.23441064 -3.61571772
O -8.12085165 -1.06827102 -3.75277548
Pu 1.42902976 -1.54286430 7.54708408
O -5.43051787 5.11546534 -6.86320296
O 1.54501553 -6.24687392 -3.59003480
Pu -1.82602119 4.51483432 -4.95765656
O -8.22530597 -7.41003816 -0.92700746
O 2.86561501 5.14860152 -2.72590132
Pu -6.14461388 2.23624087 -1.30378243
O 7.87350300 7.84520685 -1.30647550
O -3.45199858 -3.83193204 7.40297857
Pu -4.81306955 -7.95922975 2.75213227
O -1.39328394 -9.60821001 -0.76046031
O -0.20969625 -3.05784148 8.39768999
Pu 10.28014146 -1.36233774 1.17846051
O 5.47090469 0.46360791 5.69937528
O -4.22152312 -9.60287924 -1.43317253
Pu 3.11692531 -4.60005778 -7.41989382
O -4.96743945 3.10882975 -3.15252680
O 5.29732751 -8.64014776 -1.78448535
Pu -5.12536231 -4.03142347 -3.50200332
O 1.44938012 -4.16444397 -8.56528875
O 8.88063291 -3.61433083 4.94246172
Pu 4.62527544 4.27918252 5.36894500
O 0.42992617 4.58614223 -4.24416917
O 3.49175432 -5.76632419 4.86709141
Pu -3.61132714 -4.97947720 3.75627350
O 7.09253190 2.51795327 -0.12923425
O 2.75665000 -9.54399815 -0.19426082
Pu -0.04833117 -3.07674625 -7.84612431
O -0.76644920 10.18841873 5.65069209
O -6.78345675 5.76160307 1.34227026
Pu 8.01177921 1.05009134 -1.05510299
O -0.80802186 -4.59474661 10.39444645
O 9.06173412 -0.49101687 -0.43760352
Pu 0.82703097 -4.57530640 9.27223814
O -2.65660655 -5.38743885 -7.87057125
O -3.72727192 -1.41442254 5.30452933
Pu -1.07866897 0.95861321 2.99596066
O -1.81340410 2.47193094 -4.24282635
O 2.15187193 -3.43911163 8.19504251
Pu 9.73073978 -4.07631221 3.17721057
O -1.07708038 4.33186445 4.39806135
O 4.60060612 6.24648596 5.97332586
Pu -3.29350933 -3.93576588 -6.66164732
O 2.20639589 5.21619706 -6.24355088
O 0.86061140 -10.05101016 -2.02643580
Pu -1.08176363 -1.01925886 -10.21621793
O -1.49616715 -6.84605010 -5.49736076
O 9.38390251 2.85563710 -0.71917256
