420
ML-kMC step 5000
Pu 1.43139250 5.51068380 4.40269185
O 2.27766480 0.28708403 7.50540806
O 4.60389618 -2.80808803 -3.88672379
Pu 2.29821991 3.40418473 -4.77970044
O -5.06624727 7.64740477 2.42684466
O 9.63042607 -2.44630522 -3.36021325
Pu -7.54526409 5.57627321 -0.60128256
O 3.17655563 -11.69012384 -2.04750555
O -6.96255550 -3.03983191 -4.98547483
Pu -3.88383639 3.72864616 -7.39723555
O 1.30959391 -6.58699988 6.00134220
O 4.83742894 7.26062391 7.93836699
Pu 4.98830990 -5.46720101 3.54585337
O 2.48588942 2.93154942 0.03447006
O 5.49210275 5.94126483 -4.35952109
Pu -1.42973283 5.40074197 6.32226310
O -5.86119061 0.60680729 -5.02454954
O -4.19629916 1.17023010 -1.38003963
Pu -5.30375529 4.98511945 -3.42787698
O 7.43164001 2.49023903 -2.53895530
O 3.63661273 -0.73439715 3.05978119
Pu 1.71703238 3.87027115 8.06403578
O -4.29940705 1.68321000 -7.76993829
O -6.15353676 6.83711337 -0.89152763
Pu 0.53055335 -5.31839787 -10.10843402
O 2.15731882 7.47542627 -2.48840209
O -5.29312829 3.15040163 7.30603628
Pu 5.90662901 -3.31650181 -1.24476969
O -1.39836054 2.76303339 1.95345510
O -0.25051991 3.62649891 7.54002027
Pu -0.59161882 6.83449735 1.45144161
O 4.08880572 -5.33038704 1.74860050
O 0.75813820 4.14344638 5.75259452
Pu -3.44630118 -0.30563710 -7.90433230
O 1.44395065 -6.22819981 -6.17472432
O 0.68024252 8.84360092 -4.60533856
Pu 0.36152120 3.17107379 0.74275815
O -1.60811384 4.03602019 -8.41560174
O 4.61501158 -3.27601480 4.07314405
Pu 0.35774671 3.85874268 -9.09287279
O -6.63907080 5.22505946 7.39026490
O 0.84395062 -1.30109261 -9.01502512
Pu -3.45849165 -7.20968303 -6.21390843
O -4.31401258 -5.51790027 -5.77229910
O -5.44797242 -5.39307146 4.06173623
Pu -0.76436400 -6.18894197 5.92105207
O 6.14798047 2.36120627 6.54211342
O 1.32319944 -11.29844660 0.67051402
Pu -3.20631447 7.77693735 7.61903729
O -1.99917248 2.15122851 4.88444321
O -9.07361680 5.68125544 0.57842773
Pu 5.05610275 0.96768387 -7.32578074
O 3.38594915 -6.07921249 7.65389241
O 0.39814342 7.05577554 3.45223164
Pu 4.34565912 0.77538506 7.32889990
O -3.91919300 -5.67457448 -3.24000878
O -9.18166571 -4.56901354 0.28613119
Pu 7.20770310 -2.58924087 1.79014641
O 1.69100705 3.75922312 2.60077586
O -0.69841698 7.14814866 -2.26383325
Pu 0.28505653 9.03178615 -2.44746259
O 4.80767199 8.53944803 0.92069994
O -5.86505789 -6.70180968 1.14260804
Pu -1.61193794 6.58567769 -8.18530599
O 3.99058940 6.50851645 -0.23727852
O 3.91235906 1.95260366 -9.61089628
Pu 2.23416799 -7.67613663 4.46492885
O -4.51023995 2.59052722 2.43000634
O 1.45849927 9.50154984 -0.99368628
Pu 2.49418935 -4.76678999 6.43218005
O 2.85114029 -1.18346659 -9.95549956
O 0.45738853 -6.63225919 -8.64514441
Pu -8.86548484 4.93239070 4.92129157
O 9.21877508 0.46891499 1.81691369
O 4.63420627 -3.23314726 -8.02348847
Pu -1.00857847 -6.28577270 -3.65499942
O -8.53746013 6.92107008 4.23490643
O -7.18490992 5.25374503 -4.39821082
Pu 5.00434131 5.85216066 2.14369878
O 4.03680726 4.38204300 1.41333941
O -8.42915946 3.01573501 -5.34523620
Pu 11.29134286 2.76961196 -1.42682737
O 6.26894970 4.71800286 6.49075003
O -1.99141823 6.01140425 8.27217597
Pu 3.51319007 1.13735229 -0.99167346
O -0.28562493 -1.57323312 -5.69375513
O -5.81793572 -3.23206092 5.52391739
Pu -0.90423430 0.86474567 -5.82772056
O 3.61459616 5.31498866 3.76170407
O 3.15581310 7.67991851 -4.77121125
Pu -10.05829977 1.63592868 6.50304674
O -9.30539782 3.64534864 6.54073314
O 11.50247286 3.59729044 -3.12822693
Pu -9.37968808 3.71515252 1.26450910
O 5.60079056 5.80888905 -1.77612454
O -3.25496357 4.48453510 5.53417303
Pu -9.28514690 0.11427877 0.76115093
O -9.85479014 4.18281055 3.17517533
O 1.66047880 -8.80227890 -5.77190635
Pu -8.61571883 -5.29067340 -1.56614019
O -2.25744586 -0.30819205 -0.35164108
O 2.18741801 4.78507728 -9.35848611
Pu -1.73605806 -2.91999161 6.46359061
O 4.66491365 1.45938429 1.72142455
O -3.88045217 6.53263626 6.32760230
Pu -4.58156984 7.13278313 0.48117077
O -3.19320853 0.15357904 -5.57979568
O 6.27872343 4.81072519 3.48696149
Pu -0.66842176 8.41925441 4.42053839
O 0.26917493 4.23047569 9.47865906
O 7.87245132 2.32704276 2.66180593
Pu -5.69562042 -1.18797488 5.54074755
O 0.47827115 0.51123102 -10.52500001
O 4.70124458 3.20813668 -1.13320951
Pu 6.79390242 -1.04322716 -3.71244141
O 6.71669293 -5.22765638 -1.34016896
O -2.09445357 6.11359200 -6.24053302
Pu 1.83499360 -9.52685088 1.65490663
O 6.48215928 5.60622841 0.84407861
O 10.40740526 1.16181243 -2.07219337
Pu 9.49472107 3.40642986 1.40888414
O 6.81528822 -4.40909604 2.36152787
O -1.10866220 1.29710778 7.41243872
Pu -3.26411185 -1.39099851 -1.80205356
O -0.12984022 7.67602357 -6.98990731
O -0.36995655 -1.82914435 -11.79549377
Pu 1.67892146 7.28036540 -6.01789847
O -8.91842911 -4.89315322 -3.41198857
O -0.69226341 -11.77870645 -2.34458439
Pu 2.17484965 -2.66151755 -1.35763164
O -7.39574000 0.65540624 -0.84866648
O -4.55926095 -3.90561812 9.55955782
Pu 3.69592688 -9.67920063 -2.29414537
O 6.62006271 -4.35184595 -6.52696193
O -0.67049850 -4.67526094 -2.53151232
Pu 3.14702016 8.36539411 -0.02126032
O 8.42401788 0.03811337 -3.02397790
O 3.76660205 -5.99227541 -6.31321338
Pu 2.81521171 -7.38399738 -4.93950291
O -4.11680546 4.15862527 -5.29811595
O -9.62632376 -0.60483848 -1.12830252
Pu -3.06705802 7.51382704 -2.46483729
O -0.35568965 -5.16342697 1.94288177
O 5.01147119 5.09939682 -7.63901907
Pu 4.60605964 -7.63000980 0.22845519
O 1.01786713 1.70522193 -4.39478439
O -3.11007451 3.59450233 0.35490488
Pu -4.29945679 0.93808006 -3.93600910
O 1.63980762 -4.14422635 -11.42368269
O -5.39864575 -7.19545949 -1.42884259
Pu 6.95960825 -3.22224043 5.80135383
O -4.67230856 -1.78314355 -7.40086419
O 6.22765393 -1.56827628 6.42713390
Pu 6.65812627 6.55780763 7.22833276
O -0.73673846 4.96551843 0.77066970
O -7.93852745 1.68416549 7.26455492
Pu 7.57255319 3.51081901 7.40610756
O -2.38598819 -8.28613377 -3.51176671
O -2.31385622 -2.14438015 8.69666550
Pu 5.93898023 4.06060318 -2.47274907
O -10.25067493 1.86593875 0.86221252
O -1.22031871 -3.78807997 -6.43305010
Pu -0.57601445 -3.11612349 2.92321548
O 6.87412865 -1.15938765 3.88131444
O -4.16172939 5.68138286 -1.46235731
Pu 2.53453602 -2.29689427 2.55829164
O 3.62179654 8.80050861 5.68476580
O 4.92175509 0.15782783 -3.22508236
Pu 3.04558652 2.23833464 3.14316430
O 2.42562330 -2.86613035 -6.72694274
O 8.09775825 2.55924441 9.00282725
Pu 1.23439484 -11.92280396 -1.20090969
O -7.74182012 1.91044472 2.36659511
O 0.00010808 -8.67355636 1.19327286
Pu -6.55586027 -8.11857790 -0.11448405
O -7.23624792 -0.51899453 -6.59642968
O 2.75530247 -3.50864272 1.05865995
Pu 6.78418115 -2.38337945 -7.49101988
O -4.57572580 -8.44680435 -4.88518490
O 0.06734170 -2.35597015 -1.16096028
Pu 6.01008852 -7.00489996 -2.77490727
O 6.75652967 -7.31820233 0.14987142
O -7.80455711 -4.48310053 3.34086075
Pu 3.24445891 4.77309426 -0.48707093
O -10.36176936 -1.65409756 -4.11803095
O -5.84397834 -3.62467886 1.23603657
Pu 0.02846274 -7.62557734 -6.90244092
O 6.00497167 -1.82333637 0.42889618
O -5.70116629 0.95110818 5.16679711
Pu -5.24362091 -3.80365684 7.63456045
O -2.41044623 -6.08832466 0.05711353
O 1.75399646 2.36313476 -8.77679553
Pu 6.13517673 3.22763373 1.67040493
O -6.72525259 -1.82374240 7.35468789
O 4.82511833 7.45810072 3.19731633
Pu -3.36979218 1.49953853 0.50574797
O 1.21265794 5.02719300 -0.91318505
O 0.06979377 -3.37989380 0.69342046
Pu 8.12124741 0.53950502 3.57802057
O 4.71148162 2.95816830 3.72880435
O -0.17157359 6.63808132 -4.60678549
Pu -4.41906812 -5.69650682 -0.30429894
O 1.21356888 -3.53639096 3.44451066
O -6.41532015 4.27708527 -1.83547772
Pu -1.86045846 -0.27595578 8.64925367
O -6.09137036 -1.30954557 3.49635581
O 9.09354568 0.15660773 5.31629214
Pu 1.92176062 -0.92882308 -7.27290638
O 6.81634507 0.48299807 -5.11829607
O 2.64074086 -9.54994190 3.54730610
Pu 8.02432874 2.13539602 -4.52341487
O -3.75010312 -5.97174092 2.10449762
O -0.32717321 5.83337172 -9.39850533
Pu 2.84575274 7.26602058 7.04292879
O 6.16657596 0.33759514 8.19410475
O -1.26043641 -1.06602037 2.41736215
Pu 8.72341002 -4.25533235 -2.80634788
O -2.45960868 5.59217479 -2.99051983
O -2.20418550 0.84738558 -2.16528748
Pu -5.27928045 4.89741402 5.91463670
O -6.39653731 -5.30782618 7.04827721
O 1.26328108 7.51581362 0.91251795
Pu 5.78148697 -4.18018852 -4.74739716
O -0.27431783 -1.60072004 6.05704279
O 0.15972527 -0.52408319 8.72879748
Pu 4.20642285 6.88704890 -3.21870830
O -2.90518794 3.52601455 7.47829172
O -6.49105821 -5.16451899 -0.83784303
Pu 2.28914359 0.72097420 -9.77365164
O 1.36554529 -1.09306873 1.30091210
O -7.38526608 0.78294380 -3.12410241
Pu -0.48621115 -2.63222707 -3.89789178
O 7.10240359 7.68121224 5.42577316
O 9.27606485 4.77875393 2.89019517
Pu 7.98151935 4.81053659 4.53137060
O 11.29114294 -1.38103672 -0.45945239
O -2.21359577 1.39689378 9.91971401
Pu 2.07235263 -5.58365593 1.41807696
O -0.14350660 -6.51640072 -0.75259662
O -9.91452212 -0.32670753 7.12308211
Pu -7.23550019 3.41418302 7.67704905
O 8.40425651 5.46436789 6.87499804
O 1.92458246 1.26898249 -2.26400347
Pu 10.22597908 -0.78300642 -2.45466681
O 1.35326821 -2.32642469 -3.47329600
O -4.80711108 0.29851735 1.36031857
Pu -7.31686785 -1.32426188 -1.72618675
O -4.90307864 -1.41126708 -3.60873361
O -1.79458951 3.12426561 -6.48377377
Pu -5.68345264 -1.50474015 1.33380282
O 4.55862441 -6.05820455 -1.55385880
O 8.08317373 2.80378316 5.42940238
Pu -9.57284968 0.27612377 -2.97979768
O 9.23529425 -5.03522395 -1.11605862
O 3.70289472 -1.09184703 -1.47569845
Pu -6.90518640 6.95336964 3.12052906
O -1.84904179 8.89327815 -3.48409191
O 2.34929320 -8.31404708 -2.18091568
Pu -2.51246943 -3.91931530 9.79679036
O -3.84784876 9.01700870 4.84809432
O 4.61481041 8.18758147 -1.62264656
Pu -8.77602773 -3.14967130 -4.29517500
O 11.34884229 2.81511790 0.68437857
O -9.40080709 1.49093824 4.58527970
Pu 3.72446295 3.71073575 -8.47703459
O -0.71344729 -5.60434284 7.87311335
O -3.67298283 -7.23830138 4.25252705
Pu -8.52940845 3.99349221 -3.57886484
O 2.57780248 -6.95180909 0.17183476
O 8.90013616 -1.87086892 2.56804736
Pu 1.45353149 -2.21807005 -11.06746726
O -4.12401542 7.06972473 -4.10729225
O -8.58585058 -3.68584725 5.84403933
Pu -1.73088669 3.06242943 9.13274003
O -4.16000827 -8.07439780 0.25059757
O -1.70011966 -1.90026098 -8.35392697
Pu -2.21850216 4.84567555 -0.99408140
O -1.87482296 9.68658759 3.40435919
O 4.19905619 4.04514116 -4.41454046
Pu -4.11705253 1.86830778 6.49116837
O -4.14128125 -3.80463161 -1.47234910
O -0.79604130 -0.64904478 -3.53029741
Pu -1.43789555 -7.07964853 2.15264633
O -1.55084068 -4.50416179 5.04097613
O -8.01787011 -0.62475869 5.11311613
Pu -0.31729035 2.35829890 5.87412513
O 0.67334663 -4.22500116 5.70067461
O 4.61726251 -7.55429278 2.12976705
Pu 3.25769068 -1.20022445 -4.00910678
O -7.22461755 3.08777540 5.22882599
O -5.56381564 -1.28840494 -0.85268615
Pu 7.54061436 0.38721246 6.69867737
O -4.31617943 5.50981137 1.51819463
O 4.93210856 -5.89517077 -4.15877847
Pu -7.40362757 1.07958503 4.25574975
O 1.31953954 1.14644937 4.06307133
O 6.14812522 -0.64509112 -7.95280540
Pu -8.66885058 -1.86801332 6.53551923
O -8.96893210 4.86198828 -1.87712026
O 8.40055391 -3.12501274 0.27435812
Pu 2.53339734 -6.04362449 -1.79609067
O 10.88050581 -3.05178106 1.92881720
O 6.80750887 -2.27848251 -5.43636186
Pu -1.24654657 8.31430627 -5.37690871
O 7.16521791 -2.69849514 -2.57819240
O -9.34780245 2.29916588 -2.83351018
Pu -4.09906518 7.18642941 4.05428097
O -1.47668914 7.36429180 6.09636625
O -0.29761996 -3.30858430 -9.76622375
Pu -5.81206006 -1.47509084 -5.56807535
O 3.37358943 -0.48038967 -5.78733334
O -3.94609956 0.19372780 7.74562740
Pu -3.07825706 -9.72062555 0.28285465
O -3.56449998 6.26500018 -8.33079995
O -8.31177104 -3.14068771 -2.01858146
Pu -4.46835158 -8.03692972 -2.88820090
O 1.70288853 -4.49702402 -1.03357956
O -2.10098419 7.11467075 0.20661772
Pu -6.40657615 3.75063556 2.35602932
O -0.29425460 -8.08179093 -2.67177265
O -5.86121440 6.62641126 4.74666406
Pu 8.02985109 -5.62710235 0.39212032
O 4.09033506 2.81996862 -6.68992915
O -3.66118242 9.74475053 7.30367821
Pu -0.31734748 1.55972001 -2.66446784
O -2.58069696 -3.76090167 2.65720638
O 3.52661864 -1.30987319 6.09053974
Pu 5.34930172 8.60451643 4.76513814
O -7.50450113 4.75101008 3.58297159
O -3.80152478 8.56959445 -0.88310891
Pu -2.85043925 4.21593108 2.83745668
O 1.73513805 -7.15408500 2.49288334
O -7.78427029 -1.14518855 1.06787177
Pu -7.58934342 1.21245014 -5.76439176
O 6.76743714 3.80226233 -4.32354379
O -6.37803936 -8.88232221 1.76367373
Pu -7.34406839 -4.79789933 1.40516732
O -2.37978986 0.50202323 -9.35042334
O 7.29344647 -5.17592082 -3.83306961
Pu -0.96015383 -9.93343537 -3.06901652
O 2.66460503 5.25708349 6.81177771
O 0.32892642 0.27778819 -7.15320520
Pu 0.50244993 -8.34915303 -0.82435121
O 4.02826889 -3.52307609 -1.73269949
O 6.23124801 -4.91957176 5.23829401
Pu 0.81158073 5.85008028 -2.72145224
O 8.93230654 -5.61783575 2.18975187
O 0.12478668 1.14849372 0.21475533
Pu -2.92252096 10.72085462 5.15173384
O -2.06202426 -8.30326391 -7.10549749
O -2.76063455 -2.90311744 -2.91600369
Pu 6.24576045 7.24593056 -0.58865539
O 3.11447580 0.52629134 -7.90743617
O -3.21262108 8.44535832 -6.14464742
Pu -0.33523568 -0.83831903 0.10936684
O -2.62632230 -8.77844100 2.05275848
O -0.62592651 -7.16697442 4.24999165
Pu 5.56070985 4.49730348 -5.89425809
O -0.76732664 3.39392213 -1.26423340
O -5.03542670 4.61032207 3.89193607
Pu -0.87703070 -4.77481697 -0.40463303
O 6.70995719 2.38203658 -6.35178784
O -2.35116030 6.45278280 3.51102499
Pu 4.94253940 -1.05148972 4.55149104
O -4.32582573 -3.05120291 -5.16361593
O -7.46255206 3.55488887 0.25045484
Pu -4.61257626 6.74560212 -6.16150806
O 3.50117066 3.14078164 7.10317346
O 1.18032911 7.10650135 5.72262814
Pu -7.04472620 -4.91780305 5.07809182
O 4.29667752 -8.25931657 -3.65500192
O -8.12056073 -1.06836218 -3.75284682
Pu 1.35471102 -1.60758133 7.63219190
O -5.44260496 5.11896575 -6.86194584
O 1.60482204 -6.28105962 -3.66744947
Pu -1.84244860 4.47708736 -4.94548381
O -8.07478223 -7.16535176 -1.05598797
O 2.89564554 5.12654769 -2.71474922
Pu -6.10494703 2.22794273 -1.28271466
O 7.91423775 7.80901881 -1.32704662
O -3.24313517 -3.89378757 7.53229817
Pu -4.64988284 -7.75416751 2.65503037
O -1.44624904 -9.55604476 -0.77536710
O -0.17971625 -3.14625327 8.33971802
Pu 10.19900211 -1.35394128 1.17762495
O 5.48173790 0.56818291 5.59421478
O -4.23601366 -9.72500979 -1.44978172
Pu 3.12145631 -4.60525521 -7.44718750
O -5.00201629 3.12061744 -3.16044623
O 5.41268045 -8.66897999 -1.60888259
Pu -4.99887182 -3.96835329 -3.41625649
O 1.47946636 -4.09456057 -8.62046813
O 8.64415569 -3.59076714 4.70062951
Pu 4.62527544 4.27918252 5.36894500
O 0.37031625 4.53111469 -4.27905590
O 3.48251589 -5.85286475 4.88604824
Pu -3.61035619 -4.97911710 3.75590628
O 7.04563681 2.62272294 0.00338057
O 2.66150221 -9.28394082 -0.16093316
Pu -0.07323713 -3.04004966 -7.82002047
O -0.84899343 10.03488983 5.70574658
O -6.68447206 5.68521173 1.35333545
Pu 7.95731325 1.07744697 -1.00442383
O -0.77438226 -4.82061698 10.30719782
O 9.01248434 -0.47411722 -0.39752514
Pu 0.82374801 -4.70962211 9.10961176
O -2.68857745 -5.57876867 -7.71339935
O -3.78916791 -1.47071044 5.54659091
Pu -1.06357194 0.91117237 3.09093336
O -1.81584230 2.50214237 -4.26235905
O 2.05621479 -3.52127308 8.08366738
Pu 9.65101017 -4.01680976 3.10236679
O -0.94957807 4.38704327 4.36160070
O 4.59921992 6.24882198 5.97048699
Pu -3.34914501 -3.94612830 -6.62383895
O 2.09249703 5.27234599 -6.19822852
O 1.05025483 -10.14506962 -2.00163936
Pu -1.13426584 -0.95813331 -10.17643831
O -1.51865214 -6.83282618 -5.42432426
O 9.31572213 2.77935040 -0.62222039
