420
ML-kMC step 4000
Pu 1.47093150 5.26820771 4.16462938
O 2.55807702 0.00854792 7.83666471
O 4.87389017 -2.81729025 -3.91662814
Pu 2.81394835 2.98301369 -4.85667484
O -5.22233168 7.82503555 2.19168908
O 9.55489069 -2.45403676 -3.19676683
Pu -7.42117106 5.57341643 -0.51405948
O 3.10447609 -11.31951758 -1.91098589
O -6.81606329 -3.39887937 -4.49852955
Pu -3.63026730 3.50636779 -7.63849888
O 0.85722871 -6.99436085 6.18788040
O 4.66966676 7.01380729 8.17222024
Pu 5.35496287 -5.56217087 3.71575634
O 2.45778760 2.58121475 0.89968010
O 5.38127561 6.21806197 -4.50496154
Pu -1.52969568 5.22255332 5.89494058
O -5.66768407 0.52873933 -5.17835612
O -4.45132692 1.09994920 -1.69566025
Pu -5.07944188 5.10363715 -3.19076613
O 7.22959428 2.61560356 -2.58993216
O 3.63653145 -1.17154970 3.27690889
Pu 1.59612579 3.83270691 7.91150162
O -4.19057789 1.55288943 -7.91580908
O -6.21227137 7.15775730 -0.71415282
Pu 0.41959064 -5.24073618 -9.66587162
O 1.78376713 7.27566329 -2.29903596
O -5.47696275 2.24704793 7.04756849
Pu 5.76395592 -3.36514518 -0.99626345
O -1.19219086 2.88228086 2.11283046
O -0.57893158 3.39105367 7.35478514
Pu -0.56432974 6.99261470 1.50102157
O 4.38047725 -5.70651198 1.61824765
O 1.45515425 3.74399840 5.78610974
Pu -3.40953132 -0.39142356 -8.03008433
O 0.67135146 -6.00919316 -5.69652573
O 0.51733841 8.65243958 -4.98877050
Pu 0.15487392 3.25257950 0.48753213
O -1.99309366 3.54244005 -8.62647561
O 4.49309756 -3.28714898 3.95031773
Pu -0.06778399 3.09551784 -8.69203042
O -6.22602269 4.77836719 7.42722497
O 0.69606625 -1.25877535 -9.25305461
Pu -3.27283118 -7.55347028 -6.03399378
O -4.45771928 -5.70984695 -5.96412061
O -5.76699657 -5.73400291 4.25630945
Pu -0.84463819 -6.04176258 5.89783124
O 6.10917881 2.80492135 6.46010394
O 1.07491088 -10.68468438 0.68008164
Pu -2.34496484 7.86083954 7.24747333
O -2.30506727 1.99741158 4.85435814
O -8.77562042 5.98391205 0.85930280
Pu 5.35434850 0.98285600 -7.06235131
O 3.42844664 -6.56597331 7.57740772
O 0.47518435 7.05305167 3.35262642
Pu 4.14814992 1.05649079 7.38167821
O -3.74084210 -5.20601430 -3.04885441
O -8.93179710 -4.47558529 0.47127086
Pu 7.22994677 -2.75994078 2.14138793
O 2.12797651 4.11177290 2.57060303
O -0.98939671 6.70756985 -2.20199992
Pu 0.34039291 8.75543711 -2.74170551
O 4.59157633 8.44808701 1.16751694
O -5.99916530 -6.58095807 1.51821880
Pu -1.45437281 6.69429755 -8.26575251
O 4.09125052 6.57169698 0.09979365
O 3.83497302 2.08839388 -9.65734931
Pu 1.92775046 -7.91868822 4.86268523
O -4.28193006 2.78646291 2.33989492
O 1.18715953 9.16330941 -0.83700084
Pu 2.64843403 -5.10496920 6.56141529
O 2.89763061 -1.30958594 -9.43306385
O 0.46190781 -6.97188576 -8.71537348
Pu -8.84009096 4.70015752 4.79813713
O 9.19905671 0.83809315 1.54739750
O 4.88926282 -3.08729930 -8.05868839
Pu -0.76936072 -6.14250447 -3.67159588
O -8.12229119 6.64930620 4.32175725
O -6.82659637 5.03244373 -4.00525109
Pu 4.83321934 6.04808247 1.97147674
O 4.04884499 4.42817453 1.35960924
O -8.01816947 3.03038617 -5.38207963
Pu 11.33010331 2.70896093 -1.44250119
O 6.86499012 4.75885369 6.04466147
O -1.84039129 5.95559130 7.94240678
Pu 3.65588721 1.17535608 -0.88719039
O 0.62924174 -1.89991102 -5.49909367
O -5.57068602 -3.22605001 5.57272510
Pu -0.85711537 0.72117712 -5.75237841
O 3.73879556 5.60244596 3.59214734
O 2.91817066 7.17337305 -4.84030994
Pu -10.28610369 1.72269995 6.23476156
O -9.08702788 3.49779859 6.56243295
O 11.44445307 3.53687539 -3.15302135
Pu -9.30862212 3.87788710 1.39223138
O 5.38079533 5.79639326 -1.55685633
O -3.36001078 4.11962170 5.27158982
Pu -8.66555087 0.47040598 0.48034889
O -10.14141236 3.94934101 3.27365027
O 1.48196098 -8.71905785 -5.76052280
Pu -8.86609739 -5.61125695 -1.12142972
O -1.86907607 -0.70833572 -0.33887024
O 1.64509644 4.32984353 -7.84019159
Pu -1.54804113 -3.17916850 6.79257890
O 4.88728968 1.74545752 1.75609662
O -3.34341043 6.45849423 5.92853004
Pu -4.45805091 7.57387287 0.29835879
O -3.23599096 -0.01882038 -5.41333635
O 6.21719840 4.82648310 3.22401331
Pu -0.84071430 8.30732994 4.21598261
O 0.29170307 3.63550141 9.43486786
O 7.79633370 2.56986472 2.66491292
Pu -5.60524962 -1.09037075 5.63142151
O -0.00017631 0.94094478 -10.12326193
O 4.78643523 2.95403779 -1.05264177
Pu 6.77594517 -1.15962769 -3.64688490
O 6.62757935 -5.10724701 -1.40082342
O -2.17964000 6.02828780 -5.94140093
Pu 1.89591037 -9.27273926 1.88825125
O 6.60154435 5.20346465 0.95811680
O 10.52920431 0.92131630 -2.05215007
Pu 9.02821537 3.41098859 0.98355180
O 7.54797962 -4.54892551 2.91250874
O -1.16801862 1.24419307 6.80258749
Pu -3.39615936 -1.66300269 -1.96839239
O -0.13517770 7.29691199 -7.02171856
O -0.01557170 -1.58413517 -11.93348167
Pu 1.42465940 6.44733489 -6.05517207
O -9.07900225 -5.43928073 -3.03248559
O -0.64092336 -11.79337188 -2.42413934
Pu 2.37914317 -2.67971608 -1.46791825
O -6.84885993 0.45858914 -0.72279865
O -4.61653912 -4.13381993 9.61791448
Pu 3.39731801 -9.41107821 -2.16229707
O 6.63214133 -4.26079315 -6.46389618
O -0.04306542 -4.61906903 -2.69838635
Pu 2.89502497 8.45177091 0.14043586
O 8.06198155 0.52675621 -3.26276996
O 3.46137255 -6.08198065 -6.39316671
Pu 2.55948985 -7.41352735 -4.88796777
O -3.93427518 4.51920699 -5.00711962
O -8.84124876 -0.54813987 -1.21933698
Pu -2.91296408 7.57379911 -2.46211510
O -0.84994622 -5.35411773 2.11020309
O 5.03638801 5.24122933 -7.83330044
Pu 4.67457388 -7.89926169 0.31144459
O 1.22294374 1.86233364 -4.86293012
O -3.36053256 3.17898690 -0.38783982
Pu -4.25855176 1.23154670 -4.06824092
O 1.74730960 -4.43747158 -10.85004951
O -5.84914166 -7.30959744 -1.56897170
Pu 7.16625597 -3.21435202 6.05360715
O -4.50438242 -1.76439509 -7.22443254
O 6.13654566 -1.43798911 6.53544756
Pu 6.53886636 6.43718604 7.21366399
O -1.17612569 5.17043338 1.00016063
O -7.95078114 1.31620359 6.78396103
Pu 7.90167961 3.91297205 7.48823068
O -2.81934122 -8.72845488 -2.82498344
O -2.29445865 -1.94697461 9.17245941
Pu 5.84724573 4.16665811 -2.82618908
O -9.64353682 2.14213980 0.64077828
O -1.71511244 -3.16550034 -6.32571568
Pu -0.63801795 -3.42206932 3.46630226
O 7.11372393 -1.73953092 4.12519047
O -4.11100897 5.86907074 -1.56868226
Pu 2.44004548 -2.52504800 2.42861243
O 3.68219483 8.69180740 5.57708394
O 4.63497832 0.25181840 -3.07667519
Pu 3.08046211 2.45226633 2.92291244
O 2.49832263 -2.95549447 -6.65494058
O 8.32028452 2.03337779 7.99841117
Pu 1.17414217 -11.62488531 -1.02826809
O -7.29740977 1.86931802 2.41274467
O 0.48777854 -8.04123791 0.92533483
Pu -6.69126744 -8.12866573 0.14378790
O -7.31567174 -0.95972386 -6.57417127
O 2.88631007 -3.97173572 0.82589269
Pu 6.72672134 -2.45603810 -7.29336442
O -4.58122371 -8.25061390 -4.71653915
O -0.84752938 -2.92930287 -0.93112184
Pu 5.84781827 -6.98147230 -2.72442037
O 6.60896422 -6.88740100 -0.08199483
O -8.06489405 -4.78231396 3.11164108
Pu 3.45879920 4.62295904 -0.62847650
O -9.82194312 -1.81066354 -3.75312996
O -5.69251457 -3.93779436 1.69429556
Pu 0.08356163 -7.62051554 -6.87928301
O 6.38729335 -2.08368119 0.57122912
O -5.48272721 1.02106719 5.01299494
Pu -5.12396444 -3.81745488 7.74448441
O -2.44389225 -6.49927716 -0.01360846
O 1.83524992 2.23686580 -8.53170975
Pu 6.22291358 3.19238429 1.62657475
O -6.71514274 -1.95682959 7.45308037
O 4.83229018 7.48893254 3.25354900
Pu -3.24131405 1.31180233 -0.03627866
O 1.64810831 4.29476412 -1.13446473
O 0.09079904 -3.40777313 1.09110484
Pu 8.29866747 0.63125295 3.40860047
O 5.07705191 2.64477394 4.17675418
O -0.28977718 6.37964994 -4.46474172
Pu -4.42293602 -5.79527139 0.02365925
O 1.29339120 -3.94273263 3.43463799
O -6.20619624 4.48002023 -1.58448318
Pu -1.82380380 -0.23419039 8.41922680
O -5.85183962 -1.40409441 3.60096633
O 8.90185576 0.37369145 5.34205192
Pu 2.22523473 -0.85888801 -7.00988275
O 6.42665967 0.34580029 -5.57749999
O 2.36780269 -9.47881862 3.81815766
Pu 7.76133332 2.14233665 -4.63403100
O -3.77468419 -6.26129208 2.20657943
O -0.38983255 5.35351505 -9.38798141
Pu 3.07083894 7.16494134 6.94588193
O 5.87831836 0.84998782 8.41345158
O -1.39018806 -1.07283779 2.06085073
Pu 8.45667670 -4.08335310 -2.69887330
O -2.51456990 5.77772156 -3.13610725
O -2.14760149 0.68433285 -2.50810007
Pu -5.01816751 4.91035290 5.90596964
O -5.77328710 -5.31989723 6.75650737
O 1.49422426 7.12307038 0.71932144
Pu 5.70548907 -4.44987319 -4.63634952
O -0.31904312 -2.04067238 5.67614990
O 0.08154310 -0.79423264 8.38982457
Pu 4.11930083 6.83317980 -3.18121302
O -2.85251118 3.55089097 7.31090260
O -6.70615528 -5.60496525 -0.56374373
Pu 2.32592551 0.62187920 -9.61626170
O 1.85058088 -1.39881173 0.40466093
O -7.20314235 1.50087635 -3.48815465
Pu -0.49412783 -2.60669003 -3.98579310
O 6.81025593 7.59647138 5.54496406
O 9.00211163 4.31345597 2.73360169
Pu 7.81580706 4.22071435 4.34410237
O 11.05667679 -1.26162479 -0.44518480
O -2.42055674 1.52589134 9.36413209
Pu 2.22080244 -5.82334612 1.57109551
O -0.32915714 -6.60799497 -0.62579338
O -10.10964706 -0.29169151 6.59831238
Pu -7.25339493 3.04642358 7.35130979
O 8.12648335 5.70766929 8.19652386
O 1.89918567 0.99598272 -2.59033006
Pu 10.66919715 -1.03965815 -2.34383273
O 1.49647673 -2.28532695 -3.26311120
O -4.18938906 -0.25030965 1.64344861
Pu -6.95361126 -1.64731356 -1.92212938
O -5.16875973 -1.42172696 -3.16463866
O -2.09342622 2.63691037 -6.68107278
Pu -5.77815596 -1.44628268 1.34975367
O 4.41191767 -6.05753226 -1.66589750
O 8.15963703 2.90493795 5.67165198
Pu -9.28136421 0.15245540 -2.93706975
O 9.44868574 -5.17130260 -1.26274206
O 3.58185427 -1.20113810 -1.33828308
Pu -7.03528293 6.89576087 2.71833070
O -1.67100059 8.93197650 -3.29642708
O 2.02559116 -7.81093573 -2.07358698
Pu -2.59431144 -3.72092463 9.85167583
O -3.07848675 8.45268510 4.35109944
O 4.30485176 8.24617302 -1.44405523
Pu -8.76865854 -3.57604153 -4.03138108
O 10.91651792 2.76722397 0.58832120
O -9.24478649 2.07061503 4.65496243
Pu 3.41950644 3.66271120 -8.11339640
O -1.11501548 -5.14111152 7.74831914
O -3.73715397 -7.17153536 4.27261145
Pu -8.46312977 3.79030305 -3.42685020
O 2.77661287 -7.03535439 0.20767254
O 8.90390262 -1.88844432 2.70231086
Pu 1.40133049 -2.47640699 -10.55923719
O -3.70980040 7.07241947 -4.36963377
O -8.60952642 -3.24604843 5.32827084
Pu -1.81955061 3.36497204 8.94072732
O -4.36132406 -7.84584623 0.64805997
O -2.01483297 -1.82562411 -8.42420944
Pu -2.35948092 5.01196496 -1.04563104
O -1.77518119 9.05478373 2.59174837
O 4.43557151 3.88013140 -4.34870789
Pu -3.68760152 1.93411849 6.35922777
O -5.07335660 -3.61269190 -1.57354695
O -1.18200149 -0.84456751 -4.35037836
Pu -1.57074429 -7.15106685 2.13161155
O -1.68024462 -4.42862262 5.07214106
O -7.54083244 -0.52877156 5.56262812
Pu -0.06745027 2.12463366 5.52580975
O 1.22923444 -3.97218318 5.84088829
O 5.26231800 -7.60237443 2.23696676
Pu 3.16119854 -1.15609179 -3.69497723
O -6.90116787 3.48333651 4.83004064
O -4.91491959 -1.37073702 -0.48581338
Pu 7.31050987 0.76165455 6.70619303
O -3.83126286 5.99258359 1.49360796
O 4.84796534 -6.17142376 -4.32180996
Pu -7.33546988 1.18963023 4.62222010
O 1.51419228 1.53007431 4.49469355
O 6.14423908 -0.70735687 -7.89425582
Pu -8.65680651 -1.67183978 6.64604043
O -8.92766557 5.06664715 -1.86522008
O 8.34964359 -3.61843625 0.54990325
Pu 2.45832500 -5.85025317 -1.96923537
O 10.78328204 -2.84862599 2.12357998
O 7.03829442 -2.31934383 -5.34821049
Pu -1.32723605 7.85647528 -5.23663097
O 6.96841683 -2.55728498 -2.30548390
O -9.43830160 2.10238569 -2.52046554
Pu -4.07028670 6.79309775 3.94279127
O -0.95600937 7.13533239 5.84226273
O -0.58027038 -3.17905089 -9.90620727
Pu -5.74374862 -1.60362294 -5.57425347
O 3.28124931 -0.34470308 -5.41297086
O -3.24536394 -0.17168374 7.13378851
Pu -3.34161822 -9.54350320 0.16047380
O -3.36884057 6.15280474 -8.05124116
O -7.92464825 -3.23110226 -2.33911838
Pu -4.85171414 -8.40168645 -2.76913607
O 1.59604810 -4.37218046 -1.10076364
O -2.13352567 6.95293496 0.16958574
Pu -6.30544724 3.73341461 2.60352843
O -0.44180021 -7.96381932 -2.79599834
O -5.77629947 6.96533538 4.78388939
Pu 8.25582776 -5.75466138 0.44302524
O 4.28799917 2.65210462 -6.51941574
O -3.89431052 9.63349138 6.55330955
Pu -0.13921071 0.87545630 -2.72796021
O -2.79292480 -3.42147366 3.26938289
O 3.30427552 -1.09252100 6.07434406
Pu 5.39088163 8.63789783 4.67145222
O -8.02646909 4.84019064 3.06173996
O -3.62861717 9.05804435 -1.04528328
Pu -2.65052156 4.09968717 2.84232936
O 1.80271535 -7.34612062 2.81275758
O -7.73000537 -1.10023298 1.06664338
Pu -7.41440914 1.12835682 -5.63497450
O 6.96105274 4.07780873 -4.62210077
O -6.27572273 -9.00023340 1.99167340
Pu -7.28278110 -5.01416677 1.32455023
O -2.14026400 0.32222560 -9.44418877
O 7.37687488 -5.41789269 -3.59582133
Pu -1.18809410 -9.98885702 -2.92521999
O 2.34277645 5.58133237 8.22963553
O 0.38998976 0.00658462 -7.19420090
Pu 0.44923857 -8.27581466 -1.11582943
O 4.13524221 -3.79829627 -1.98605795
O 6.35768433 -5.02602084 5.42581452
Pu 0.86199679 5.35718753 -2.72232196
O 9.29899067 -5.79338713 2.19110840
O 0.67323263 1.44242024 -0.66299738
Pu -3.22944053 10.33300400 4.76636081
O -1.91895270 -8.10147336 -7.31237748
O -2.50450581 -2.81833225 -3.22007987
Pu 5.99869341 7.46640502 -0.28710528
O 3.60047139 0.36344863 -7.84281923
O -2.98907913 8.42441312 -6.56185956
Pu -0.29531914 -1.51744990 0.35997718
O -2.81244451 -8.71436090 2.12309540
O -0.62766105 -7.54195390 4.26766442
Pu 5.47082636 4.75755245 -5.98404121
O -1.14481876 3.52415547 -1.12266395
O -4.97285344 4.74822887 3.76548317
Pu -0.76957671 -4.70376183 -0.23393513
O 6.82399211 2.53294382 -6.47840929
O -2.21287768 6.31178393 3.83344661
Pu 4.91417576 -1.20072562 4.81970731
O -4.13980412 -3.06288420 -5.36236325
O -7.50330012 3.40416136 0.01382954
Pu -4.22151071 6.56288013 -6.15656642
O 3.32976327 2.89719774 7.13301405
O 1.34035432 6.55878176 5.91505863
Pu -7.21022018 -4.73662968 5.09215325
O 3.99982079 -8.06617217 -3.65671598
O -7.63630193 -0.95922664 -3.69816389
Pu 1.44066648 -1.50742415 7.07373994
O -5.08350461 4.78282776 -7.25834324
O 1.57485819 -6.31162560 -3.60381438
Pu -1.75984166 4.42908833 -4.98445718
O -8.46261789 -7.81913067 -0.53356403
O 3.02580536 5.10820015 -2.56213478
Pu -6.19972083 2.32680944 -1.37082501
O 7.60728649 7.17948730 -1.51799388
O -3.16171704 -3.87116822 7.58097835
Pu -4.82574351 -8.00921748 2.86405589
O -1.63295632 -9.47325869 -0.94564247
O -0.33128222 -3.28819342 8.28878829
Pu 10.12174199 -1.25653154 1.23434428
O 5.27879007 0.68119074 5.75318555
O -4.99752687 -9.60018877 -0.99747031
Pu 3.32054256 -4.47270805 -7.63424526
O -4.88019180 3.09199954 -3.42828591
O 5.28935091 -8.62891704 -1.51768785
Pu -4.90229379 -3.81846240 -3.71336712
O 1.24946610 -3.90468537 -8.49836659
O 8.93299153 -3.56150429 4.91435858
Pu 4.79306651 4.01276797 5.47971558
O 0.48168348 4.51942139 -4.45257848
O 3.31902304 -6.24147874 4.77558046
Pu -3.98216273 -5.15259476 3.80173080
O 7.22776096 2.52372230 0.03617265
O 3.04439805 -9.36050656 -0.10218218
Pu -0.15372502 -2.76085727 -7.76932792
O -1.50738225 9.74794546 5.63820529
O -6.44171833 5.44083859 1.44661462
Pu 8.04577901 1.30104015 -1.34045317
O -0.93632487 -4.56513894 10.33495851
O 8.64514697 -0.35956701 -0.55076690
Pu 0.81444555 -4.84386503 9.28086744
O -2.40603999 -5.09806698 -7.98282972
O -3.65558987 -1.55754985 5.10100802
Pu -3.06661222 -0.61573082 3.50493690
O -1.37855860 2.33100001 -4.36669253
O 2.33901438 -3.97049314 8.09174627
Pu 9.79720845 -4.14026081 3.20264717
O -0.53885086 4.33046242 4.45918614
O 4.69150477 5.93929774 5.93035627
Pu -3.76585728 -3.94743101 -7.04715916
O 2.91333626 4.79987103 -5.93712405
O 1.07595599 -9.82574611 -2.25006438
Pu -1.19969872 -1.00056055 -10.43316945
O -1.51946430 -7.32763494 -5.18547934
O 9.28041231 2.84163519 -1.05542709
