420
ML-kMC step 500
Pu 1.53828276 5.73750312 4.29900268
O 2.47030069 0.74128447 7.70294030
O 4.83692913 -2.84943045 -3.85664407
Pu 2.76458436 2.97958064 -5.39300385
O -5.61150952 8.18485754 1.98920409
O 10.34134732 -2.72507987 -3.30597043
Pu -7.70059205 6.06622499 -0.32566616
O 3.02505408 -11.86963413 -1.87004426
O -6.96368144 -3.24749367 -4.53886814
Pu -4.29780799 3.60790678 -7.37437382
O 1.05051645 -6.48027994 6.25527201
O 4.93934662 7.35917726 8.30999850
Pu 5.45391279 -5.67201390 3.86182499
O 2.28542900 2.55746600 0.28308000
O 5.66224092 6.39293441 -4.97638004
Pu -1.20468945 5.45197210 6.35446204
O -5.99266695 0.68313107 -5.05588105
O -4.29107057 1.15827051 -1.51351673
Pu -5.38236341 5.29246727 -3.44728868
O 8.14203849 2.52212088 -2.74475992
O 4.21102766 -0.75856186 2.65760642
Pu 1.97102673 3.87486139 8.11981571
O -4.55073180 1.24073710 -7.98473126
O -6.12632063 7.47819592 -0.95264031
Pu 0.26816972 -5.25748960 -10.56335422
O 2.16006262 7.71377974 -2.61160721
O -5.62896721 2.68185086 7.89375725
Pu 5.78139475 -3.30024496 -1.17316082
O -1.29441588 2.95496482 1.84987328
O -0.47886858 3.46207022 8.01016528
Pu -0.60972852 7.06867779 1.40804201
O 4.70853575 -5.54878851 1.99194037
O 0.79767861 4.04164181 5.83027857
Pu -3.59887647 -0.52571804 -8.32580179
O 1.28612302 -6.59990954 -6.17856703
O 0.80400923 8.79285733 -4.88729231
Pu 0.29764600 3.11177300 0.67131700
O -1.91410659 4.48915418 -9.27128612
O 4.70482710 -3.25461556 3.87799734
Pu 0.10367788 4.49451830 -9.87208060
O -6.50595437 5.32281320 7.82620573
O 0.68763719 -1.77819781 -9.59023624
Pu -3.49551276 -7.91075726 -6.87399759
O -5.13602705 -6.17600242 -6.87621658
O -5.87103388 -5.70398081 4.23231548
Pu -0.89148397 -6.16102362 6.04812620
O 6.17119988 2.54748841 6.36112933
O 1.23953977 -11.59820557 0.96604348
Pu -2.79941665 8.15975740 7.62069552
O -2.15652157 2.28694282 4.83701346
O -9.49459147 6.34741677 0.87011638
Pu 5.71467947 0.97003911 -7.88670890
O 3.22328277 -6.64928645 8.24810665
O 0.12291372 7.37658110 3.39003388
Pu 4.51698265 0.79823752 7.87642324
O -4.37231374 -5.66112685 -3.58692309
O -9.44416163 -5.00822035 0.23967906
Pu 7.35351903 -2.80918170 1.86919325
O 1.39451911 3.65675551 3.15928851
O -0.95699464 7.58344046 -2.38688873
Pu 0.17352263 9.27360645 -2.50030428
O 5.08764797 8.56267747 1.33420776
O -6.10999393 -6.60273161 1.28666433
Pu -1.80897374 6.97311032 -8.60992182
O 4.16626553 6.85708788 0.09762041
O 4.17390820 1.89808638 -9.82175528
Pu 2.43234591 -8.16724206 4.73121480
O -4.72282293 2.45332271 2.65007750
O 1.65282906 9.54813359 -0.85914846
Pu 2.96283085 -5.33862541 6.87257817
O 2.70723458 -1.27769252 -10.65189307
O 0.54172899 -7.05061962 -9.11262963
Pu -8.99109310 5.10258494 5.05439003
O 9.50652274 0.61383168 1.86007587
O 4.82465965 -3.30710526 -8.52527917
Pu -0.68979092 -6.55180738 -4.11104386
O -8.36626737 7.08458311 4.81591406
O -7.63592905 5.62329624 -4.32434678
Pu 5.12572582 6.10952726 1.96902971
O 4.05089500 4.33836000 1.39865000
O -8.44640931 2.85609909 -5.46277460
Pu 11.88139188 2.75927304 -1.30595875
O 6.63433761 4.94434898 6.76556226
O -1.78032112 6.26669615 8.12385724
Pu 3.75838300 0.92697500 -0.90412500
O 0.28062627 -1.55318260 -5.10350889
O -5.73256167 -3.32095975 6.23468248
Pu -0.94011153 0.86737195 -5.94834391
O 4.18770800 5.29696400 3.69041400
O 3.49299003 7.84811903 -5.22327689
Pu -10.87957546 2.19616178 6.16199310
O -10.59638954 4.30489275 6.41219461
O 12.99687911 3.79085880 -2.75926109
Pu -9.75089326 4.28724761 1.23661856
O 5.77897794 5.92221719 -1.78830427
O -3.31872320 4.42857259 5.58874406
Pu -9.12647937 0.39846958 0.58290664
O -10.08742696 4.42383332 3.33008345
O 1.08603400 -8.89250813 -6.00499145
Pu -9.39174434 -5.95499737 -1.52555480
O -2.43286913 -0.00532851 -0.07127374
O 2.15120957 5.01459697 -9.68664583
Pu -1.68069730 -3.03195844 6.81279349
O 4.68503997 1.87670139 1.78157827
O -3.70939170 6.69360368 6.68905196
Pu -4.58598335 7.83972833 0.31048097
O -3.54964679 0.56177576 -5.60748790
O 6.71426607 4.67953755 3.33135018
Pu -0.73582859 8.99453832 4.36868262
O 0.67984251 4.16089328 9.66214432
O 8.31740601 2.74331425 2.48999253
Pu -5.89805249 -1.27409792 5.73038706
O -0.05643901 0.58145495 -10.60014948
O 4.84335522 3.12791936 -1.15640322
Pu 6.87689585 -1.05043661 -3.85655658
O 7.02929762 -5.69225257 -1.27067817
O -2.47614685 6.22441725 -6.34097248
Pu 1.93214762 -9.95309352 1.83333189
O 6.37150296 5.28097372 0.72425574
O 11.64746542 0.82921864 -2.11742522
Pu 9.73619227 3.64036142 1.42879096
O 7.72645600 -4.87763600 2.81479600
O -1.38541198 1.20722720 7.77874275
Pu -3.39114773 -1.61897968 -1.85406780
O -0.37971361 7.51288043 -7.15060008
O -0.34587627 -1.56495512 -12.40781961
Pu 1.64249474 7.12907309 -6.18374619
O -10.33980939 -4.69069633 -3.09692417
O -0.45822725 -12.57600123 -2.15481262
Pu 2.31716191 -2.64654216 -1.50788540
O -7.46052555 0.35583396 -0.82432247
O -4.69571403 -4.26214471 9.89153146
Pu 3.21703230 -9.94420158 -2.16649087
O 5.90448544 -4.40341157 -6.89459715
O -0.16772087 -4.84111399 -2.31452078
Pu 3.16709010 8.63772892 0.09807467
O 8.67789006 0.25751003 -3.80062052
O 3.77482997 -6.46046333 -6.82240452
Pu 2.61746196 -7.61826007 -5.22059052
O -4.26933686 4.16646832 -5.26355815
O -9.85873075 -0.36321243 -1.35003630
Pu -3.13799275 7.78319711 -2.61724534
O -0.96823684 -5.09371361 2.07770510
O 5.00332460 5.27684209 -7.99907043
Pu 5.08510768 -8.38197220 0.26786585
O 1.06517983 1.64294437 -4.91696166
O -3.19466633 3.42763738 0.37804357
Pu -4.26004748 1.15924898 -3.84381291
O 1.56645161 -4.26624418 -11.85301847
O -5.99320430 -7.77878554 -1.90230600
Pu 7.66958381 -3.14132665 6.13635562
O -4.47730849 -1.78081680 -7.13266559
O 6.96169100 -1.55725400 6.97866800
Pu 6.68515186 6.73251008 7.60333742
O -0.85453859 4.97550690 1.12713464
O -8.90044044 2.07808273 7.88061920
Pu 8.21169158 4.13833198 8.08552105
O -2.77385910 -9.05027442 -3.03967708
O -2.39737470 -2.01541468 9.84551442
Pu 6.03395073 3.92957953 -2.67744824
O -9.89875502 2.27055448 0.87944994
O -1.17823963 -4.24067612 -6.34515746
Pu -0.60067956 -3.22268411 3.10224187
O 7.41795244 -0.75025995 4.61396155
O -4.18604600 5.94416900 -1.56651900
Pu 2.84168877 -2.14811667 2.50814498
O 3.55504099 8.80976727 5.62551003
O 5.27152376 0.33221226 -2.74693418
Pu 3.09169747 2.17266684 3.17896190
O 2.35994793 -3.14813953 -7.16596915
O 8.33889347 3.06904924 9.69186780
Pu 1.24873994 -12.35693596 -0.90888161
O -7.43067510 1.98749864 2.37240200
O 0.11905656 -9.07921419 1.11183329
Pu -6.89278838 -8.43702203 -0.00813978
O -7.61194649 -0.66545574 -6.55133066
O 2.89454817 -3.88382434 1.73656282
Pu 6.70208871 -2.89717332 -7.85659708
O -4.22307296 -9.68438219 -4.85750253
O -0.86532600 -2.31311700 -1.15003600
Pu 6.13398047 -7.26247792 -3.03330667
O 7.74583873 -7.55070944 0.36531771
O -8.23713744 -5.23064217 3.33863530
Pu 3.42925672 4.71625212 -0.58230641
O -10.36772234 -1.73094979 -4.08097378
O -6.05885246 -3.88870835 1.63504625
Pu 0.08280010 -7.86560322 -7.35416776
O 5.98750073 -1.84623940 0.48238089
O -5.64857071 1.33362354 5.12184635
Pu -5.28580119 -4.09128486 7.95992247
O -2.51512639 -6.49014012 0.12364871
O 1.54150011 2.51977085 -9.34254672
Pu 6.25513823 3.22008743 1.69237641
O -7.22065203 -2.00559700 7.63568839
O 4.81713275 7.47161845 3.31587532
Pu -3.61240456 1.57706113 0.74141071
O 1.34681802 5.16894675 -0.90987026
O 0.64757626 -3.34044030 0.75399993
Pu 9.00590104 0.40384464 3.70844180
O 5.21771224 2.64975513 4.13897756
O 0.16156951 6.67300662 -4.98757822
Pu -4.49424793 -5.72914218 -0.30381280
O 1.39684804 -3.63635646 3.37481125
O -6.93083893 4.47941927 -1.77549841
Pu -1.97501843 -0.13796812 8.98676414
O -5.79497804 -1.81749029 3.66101509
O 9.13334243 -0.14485140 5.87784635
Pu 2.26543017 -0.88651119 -7.28920864
O 6.72623797 0.57130305 -5.23573205
O 2.54550260 -10.05401113 3.68039345
Pu 8.21569227 2.04035808 -5.12057124
O -3.95559795 -6.38531819 2.04720489
O -0.43030400 6.50702065 -10.00654063
Pu 3.29561669 7.52518364 7.13513265
O 6.20874639 0.86656329 8.84496534
O -1.55398330 -0.99489807 1.73888819
Pu 9.23501212 -4.31823007 -3.11106720
O -2.61359320 5.53019887 -2.94379953
O -2.53417740 0.37774065 -2.08089470
Pu -5.30418668 5.03735558 6.14374105
O -6.34947735 -5.54465132 7.11615300
O 1.46947798 7.52180065 1.14524035
Pu 5.93029700 -4.35787700 -4.66670800
O -0.49358405 -1.74012714 6.01289752
O -0.03307304 -0.69096537 9.12390429
Pu 4.54704031 7.37826472 -3.48774247
O -2.70524657 3.00467095 7.74782135
O -7.36631881 -6.19352331 -0.88472348
Pu 2.13170107 0.71679381 -10.17108380
O 1.84806473 -1.25897219 0.81261872
O -7.42916872 1.23973626 -2.91165129
Pu -0.58602129 -2.69197647 -3.72303950
O 6.76747728 8.25785899 6.11955894
O 9.59859505 4.40207803 3.24376066
Pu 8.09008053 4.72299171 4.65406989
O 12.26456250 -1.66482199 -0.49913935
O -2.55348860 1.63509507 10.13070202
Pu 2.39878807 -5.92438180 1.63339373
O -0.21850478 -6.59886568 -0.76199032
O -10.53107684 -0.11061127 6.28838123
Pu -7.49085697 3.45843471 8.12543178
O 8.57197154 6.18977869 7.92252229
O 2.07261905 1.20636923 -2.35373584
Pu 11.31760621 -1.04535084 -2.07174985
O 1.24058654 -2.50423311 -3.07886199
O -4.18894046 -0.66527429 1.71794785
Pu -7.45008445 -1.44825883 -1.76749752
O -4.92688271 -1.58050466 -3.81881519
O -2.33067113 2.95949408 -6.59859037
Pu -5.96822811 -1.49433995 1.39946114
O 4.56501472 -6.03792035 -1.66259957
O 8.81755238 3.67429779 6.12885183
Pu -9.87102192 0.05801147 -3.26014242
O 9.72157993 -5.09349570 -1.35171332
O 3.52705831 -1.16221675 -1.43090924
Pu -7.25972241 7.27756047 3.08469248
O -1.94552969 9.26873498 -3.48120351
O 1.95274469 -8.45414486 -2.22909640
Pu -2.73446551 -4.02084417 10.31992046
O -3.59490128 9.19205962 4.69445806
O 4.94509836 8.47616739 -1.62189490
Pu -9.21172568 -3.42632017 -4.08570078
O 11.42852091 2.57492726 0.72694334
O -9.48600253 1.88515678 4.88770701
Pu 3.78034426 3.94793431 -8.79337884
O -0.86676977 -5.63350524 7.96390710
O -4.23864474 -7.04388465 4.52051880
Pu -9.12720569 4.08782412 -3.94514550
O 3.12525100 -7.38583100 0.17411500
O 9.01388140 -2.30147588 2.64555098
Pu 1.30316164 -2.36374428 -11.61109094
O -4.04396098 7.57760463 -4.29047151
O -8.73613777 -3.54831991 6.03897601
Pu -1.73084676 3.23826051 9.47856160
O -4.48781482 -8.41622385 0.30394466
O -2.01130227 -2.32501266 -8.75198964
Pu -2.46669253 4.92215221 -0.99466096
O -1.90490748 10.52390414 3.81346439
O 4.66714069 3.96758402 -4.64084280
Pu -3.94156481 1.73289140 6.71704818
O -4.46863242 -4.10416826 -1.40283865
O -1.32009282 -0.86082015 -3.75665482
Pu -1.63894859 -7.67500851 2.51283191
O -1.50802867 -4.48273445 5.13596098
O -7.68908140 -0.49762739 5.47617346
Pu -0.47017224 2.33471853 6.02861084
O 1.13291653 -3.69211955 6.16220096
O 4.74858435 -7.89748612 2.25945390
Pu 3.07071803 -1.03238867 -3.75292932
O -7.42758630 3.72261348 5.53686589
O -5.29131989 -1.51263616 -0.62931565
Pu 7.57546511 0.57025553 6.88642669
O -4.40864936 5.78411656 1.64331334
O 5.11495889 -6.15037818 -4.21297871
Pu -7.63343569 1.42614119 4.59564908
O 1.38817258 1.28449220 4.34559028
O 6.51985302 -0.73929335 -8.14723224
Pu -9.14607755 -1.72558066 6.80746749
O -9.70944666 5.36453412 -2.55477290
O 8.75003909 -3.68663764 0.58259014
Pu 2.40421375 -5.83976814 -2.16281171
O 11.45480689 -3.01265834 2.14967887
O 7.08656406 -2.76350368 -5.45477466
Pu -1.41044591 8.26944319 -5.60623851
O 7.49004255 -2.86172031 -2.49190195
O -10.19237264 1.94327537 -2.96757115
Pu -3.96386400 7.23883300 4.17721100
O -1.26598853 8.12680610 6.25705808
O -0.40526496 -3.46102001 -10.50147412
Pu -5.79116146 -1.42364878 -5.67787434
O 3.48409701 -0.09738980 -5.65334728
O -3.37814411 -0.18216166 7.27409215
Pu -3.50067637 -10.08396759 0.19554482
O -3.71946760 7.26142028 -8.57548386
O -8.15553921 -3.32000575 -2.25059045
Pu -4.74909376 -8.90504816 -3.10750180
O 1.44005578 -4.35140378 -0.88375732
O -2.13619522 7.67707558 0.24491737
Pu -6.42525719 4.04144012 2.60236127
O -0.18836187 -8.37005429 -3.11082538
O -5.71991165 6.78095637 4.84620841
Pu 8.69831302 -5.81967609 0.45218079
O 4.27361248 2.63851352 -6.99184777
O -3.75195035 9.87948052 7.37673722
Pu -0.56183017 0.95128087 -2.57324602
O -2.83445685 -2.79636583 3.00934420
O 3.50077958 -1.25165853 6.00781286
Pu 5.44376690 8.64535580 4.68829309
O -7.96156543 5.20589652 3.28364878
O -4.31849446 8.97411091 -1.24849417
Pu -2.58680889 4.14335654 2.98698024
O 1.86076021 -7.92910594 2.45584069
O -8.14022578 -1.31890150 1.19487557
Pu -7.66917877 1.12940308 -5.88056871
O 6.96952797 3.48481696 -4.80188300
O -6.37757076 -9.11181894 1.88242980
Pu -7.67220297 -5.00902731 1.39894648
O -2.67730919 0.00115364 -10.01189220
O 7.67234644 -5.64248032 -3.86345821
Pu -1.07699595 -10.21325665 -3.18120731
O 2.69971182 5.71900619 7.75417075
O 0.37252500 -0.22366966 -7.33007568
Pu 0.35733475 -8.43849014 -0.89321971
O 4.00695689 -3.55007254 -1.90787515
O 6.71193724 -4.64305358 5.38062759
Pu 0.93705551 5.90762941 -2.93551143
O 9.74325773 -5.82108431 2.42167458
O 0.63407748 1.33074995 -0.71286962
Pu -3.07897036 10.90824075 5.42534821
O -1.85097173 -8.55838531 -7.65736752
O -3.01271341 -3.04554859 -3.08007640
Pu 6.32428235 7.67567696 -0.49593839
O 3.76879368 0.40120756 -8.12034758
O -3.11225186 8.66944047 -6.67745976
Pu -0.46417633 -0.78440966 -0.04743592
O -2.82670435 -9.17651548 2.13799576
O -0.82487914 -7.62100530 4.36734685
Pu 5.88202924 4.68746430 -6.15183922
O -1.18917245 3.34317936 -1.08366648
O -5.31216700 4.74274200 4.14827000
Pu -0.90389865 -4.75673086 -0.05226177
O 7.48314636 2.37446486 -6.93099858
O -2.30006616 6.45491398 3.65339093
Pu 4.97762894 -1.03106077 4.62957159
O -4.41403986 -3.25802353 -5.45879726
O -8.06549995 3.77615537 -0.01456329
Pu -4.48404074 7.32048724 -6.53409426
O 3.59993104 2.93142362 7.43480973
O 1.13848396 7.11999626 6.32516371
Pu -7.36971654 -4.99702559 5.35125142
O 4.01589175 -8.55258014 -3.70722571
O -8.04249017 -1.11445252 -3.70167583
Pu 1.49574661 -1.34025104 7.34544748
O -5.48686337 5.55624294 -7.10418473
O 1.50485210 -6.33262470 -4.02866092
Pu -1.72500963 4.46906066 -4.93943730
O -8.77185462 -8.16643129 -0.75217621
O 3.11638305 5.43838542 -2.61831724
Pu -6.73270369 2.45622020 -1.61787217
O 8.07697604 8.20661366 -1.26708264
O -3.20367235 -4.05299752 7.76966110
Pu -5.04628162 -7.96029711 2.80288890
O -1.77603499 -9.91596567 -0.94647524
O 0.10025312 -3.14094814 8.58319972
Pu 10.74038457 -1.51590319 1.09360271
O 5.47693260 0.25373256 5.97515539
O -5.32653935 -10.06774735 -1.60949541
Pu 3.54102415 -4.69508808 -7.82502393
O -5.06367158 3.25354327 -3.26969138
O 5.07741485 -8.74508406 -1.65121952
Pu -5.12956136 -3.74454041 -3.65807750
O 1.61463305 -4.50569525 -9.00499183
O 9.15084666 -3.85289154 4.94418401
Pu 4.82349542 3.97861045 5.65374640
O 0.33935837 4.52921329 -4.56369073
O 3.53722600 -6.34216800 5.15698500
Pu -4.06863178 -5.21836710 3.86762717
O 6.99563990 2.37252365 -0.17116091
O 3.27690179 -10.08117377 -0.08869446
Pu -0.01794971 -3.14965599 -8.18726225
O -1.09804232 10.67096008 5.79711719
O -7.11998777 5.57817335 1.47343464
Pu 8.47496112 1.37389245 -1.16532133
O -1.00558873 -4.70048115 10.81200111
O 9.47147070 -0.42718406 -0.37810445
Pu 0.41562414 -4.84397026 9.42965837
O -3.10698953 -5.88030152 -8.14677979
O -3.93606900 -1.51681700 5.52390600
Pu -0.55550077 0.72139365 3.21440998
O -1.25990822 2.46203726 -4.17193877
O 2.18502197 -4.36602035 8.82471679
Pu 10.42145373 -4.33762234 3.54414778
O -0.25323106 4.95098569 4.02508018
O 4.97826152 6.19678167 5.94820601
Pu -3.62435398 -4.40878750 -6.85076050
O 2.75603186 5.11436763 -6.36273064
O 0.54462525 -10.35313446 -2.09111303
Pu -1.29855045 -1.17430991 -10.69708424
O -2.02310932 -7.14700045 -5.81224205
O 9.83495820 2.91321203 -0.71536452
