420
ML-kMC step 50
Pu 1.53886500 5.73510600 4.30004400
O 2.47819500 0.71693100 7.75585400
O 4.83688500 -2.82043400 -3.82049500
Pu 2.79538400 3.00665000 -5.40479000
O -5.60785000 8.20134500 1.98939300
O 10.73621100 -2.84609200 -3.34221500
Pu -7.90403800 6.00035400 -0.28430400
O 3.05010100 -11.95864400 -1.91397700
O -7.09371600 -3.45905200 -4.81284000
Pu -4.25198799 3.58509937 -7.37072352
O 1.20480600 -6.83943700 6.45926600
O 5.11216715 7.42933883 8.59011297
Pu 5.62173600 -5.98621200 3.89690900
O 2.28542900 2.55746600 0.28308000
O 5.80537800 6.49695600 -5.12863400
Pu -1.22988700 5.53955800 6.45648400
O -5.90948481 0.66939990 -5.03278769
O -4.34697200 1.01176200 -1.52062300
Pu -5.37372900 5.30791100 -3.44588800
O 7.98999106 2.50331101 -2.96793443
O 4.20023100 -0.75159500 2.65110100
Pu 1.67480900 3.92463200 8.19814000
O -4.61853100 1.30337800 -8.11337200
O -6.16686000 7.49445100 -0.93600100
Pu 0.24215000 -5.58756500 -10.90219300
O 2.17467900 7.71177100 -2.67368500
O -5.72844700 2.74791000 8.04369400
Pu 5.81416828 -3.27424176 -1.11330223
O -1.29562400 2.95778900 1.84911900
O -0.51471600 3.49046600 7.93334900
Pu -0.58632500 7.07698200 1.43629000
O 4.72434900 -5.57962800 1.92117600
O 0.78368400 4.17249600 6.06850100
Pu -3.63866000 -0.52157900 -8.42978200
O 1.29111900 -6.59903700 -6.18452500
O 0.79080800 9.00546100 -5.11735200
Pu 0.29764600 3.11177300 0.67131700
O -2.10500300 4.34143400 -9.46847500
O 4.66823800 -3.22794700 3.94265600
Pu 0.04498000 4.59186300 -9.90637300
O -6.75417200 5.08918500 7.67986900
O 0.68889800 -1.84355300 -9.64986100
Pu -3.61902000 -7.98271400 -6.93226700
O -5.13192600 -6.48180200 -7.28447500
O -5.84866700 -5.69487800 4.27947400
Pu -0.85907900 -6.29023000 5.95933500
O 6.19140100 2.56585500 6.36241500
O 1.28126800 -12.01946100 0.97887600
Pu -2.71354026 8.22819552 7.56119847
O -2.04476300 2.25326700 4.97079300
O -9.78389400 6.23539600 0.85960900
Pu 5.78762800 0.85727000 -8.00512800
O 3.74760100 -7.07325900 8.60534500
O 0.44177900 7.47437200 3.53696600
Pu 4.54468300 0.78074700 7.86967000
O -4.34249500 -5.99118700 -3.55614900
O -9.69644800 -5.34229800 0.28678900
Pu 7.33917300 -2.89513300 1.89059500
O 1.41436700 3.67548300 3.14296400
O -1.00761700 7.76550900 -2.32306000
Pu 0.20782100 9.45264200 -2.49726400
O 5.06174800 8.91816000 1.46941200
O -6.15971548 -6.60470627 1.11210043
Pu -1.95324200 7.58021600 -9.45039200
O 4.19017900 6.96661300 0.14645300
O 4.28251600 1.86360200 -10.02003800
Pu 2.44190171 -8.22694200 4.68761239
O -4.74779600 2.55029200 2.45949500
O 1.69331700 9.96081900 -0.77310200
Pu 2.90226900 -5.26113500 6.83299200
O 2.81181000 -1.38149400 -11.31895400
O 0.53109400 -7.33024600 -9.21110200
Pu -9.10362189 5.20951127 5.15527746
O 9.62309600 0.67361400 1.92493900
O 5.27039580 -3.29919092 -8.86738957
Pu -0.89753300 -6.58576200 -4.20102100
O -8.65335228 7.08409628 5.01616817
O -7.84201000 5.66882600 -4.54487500
Pu 5.12349245 6.18127900 1.98832796
O 4.05089500 4.33836000 1.39865000
O -8.50258328 2.81416650 -5.31352367
Pu 12.32929700 3.03220700 -1.36193200
O 6.74057800 5.03161600 6.91774100
O -2.19910000 6.21842900 8.11587900
Pu 3.75838300 0.92697500 -0.90412500
O 0.28629900 -1.59193300 -5.12497600
O -5.86108113 -3.34320845 6.45377988
Pu -1.02768390 0.89948396 -5.82180401
O 4.18770800 5.29696400 3.69041400
O 3.55994600 7.97881000 -5.31546100
Pu -11.12063100 2.26962100 6.37284000
O -10.44883700 4.02741700 6.64231400
O 13.34105084 4.03318186 -2.69399263
Pu -10.12307912 4.23770108 1.42195542
O 5.70980000 5.92921100 -1.79094400
O -3.37051400 4.37306300 5.54104500
Pu -9.30400500 0.36463800 0.72353800
O -10.11715138 4.52639289 3.47411625
O 1.07715500 -8.94809500 -6.03352800
Pu -9.81368800 -5.95415500 -1.60125000
O -2.38233918 -0.13306578 -0.14258056
O 2.36459197 4.79931098 -9.83535044
Pu -1.79966400 -3.11401300 6.80433200
O 4.59169700 1.83317000 1.70933800
O -3.70632300 6.69899000 6.68802800
Pu -4.75645800 7.83684600 0.30051600
O -3.60798500 0.59314600 -5.60120500
O 6.71472100 4.67905700 3.33267000
Pu -0.92505600 9.48420500 4.66662800
O 0.69894100 4.45239200 9.80417200
O 8.37452600 2.65785800 2.65085700
Pu -5.84131583 -1.30575132 5.75017809
O -0.04447500 0.54959900 -10.93378000
O 4.86340900 3.10655100 -1.15927800
Pu 7.20324500 -1.09186100 -4.00110500
O 7.18569800 -5.72539300 -1.40454900
O -2.73334600 6.07287400 -6.60741100
Pu 2.05349400 -10.34015000 1.86286100
O 6.38130576 5.33975389 0.75859862
O 11.41769639 0.92586341 -2.22548891
Pu 9.84427400 3.67972000 1.44380400
O 7.72645600 -4.87763600 2.81479600
O -1.39248900 1.14023900 7.92487500
Pu -3.34750400 -1.57964900 -1.81020800
O -0.26450810 7.81244519 -7.55944613
O -0.40484074 -1.63380287 -12.65138597
Pu 1.83509900 7.13678900 -6.40224100
O -10.44263245 -4.95555701 -3.14283571
O -0.30972305 -12.65811875 -2.16015826
Pu 1.82555200 -2.56849500 -0.67833500
O -7.38558000 0.34775600 -0.89551100
O -4.76335706 -4.36037788 9.90452723
Pu 3.31584500 -10.05104900 -2.20311800
O 6.37360649 -4.49635569 -6.85607111
O -0.21946504 -4.71573848 -2.38103251
Pu 2.94992100 8.81968500 0.12542600
O 8.79938900 0.10941300 -3.78571200
O 4.02806900 -6.67219500 -7.21254300
Pu 2.62309300 -7.63847900 -5.23304700
O -4.28900400 4.13236200 -5.40284300
O -9.77370100 -0.32245100 -1.45674200
Pu -3.23789700 7.83714400 -2.58772300
O -1.03559400 -5.04624200 2.11988200
O 5.03144700 5.45515900 -8.18213900
Pu 5.37376607 -8.60721586 0.39644378
O 1.10765200 1.89126000 -4.74326400
O -3.33774869 3.42285890 0.51370051
Pu -4.21581361 1.07446752 -3.82865501
O 1.48609100 -4.64355700 -12.01145800
O -6.00680900 -7.85768100 -2.03563400
Pu 7.60953421 -3.03527305 5.95862028
O -4.53919500 -1.83531600 -7.15147300
O 6.96169100 -1.55725400 6.97866800
Pu 6.61849966 6.82609726 7.57826936
O -0.83493400 4.95871100 1.13822300
O -9.36440871 2.14821271 8.65813926
Pu 8.35414947 4.07327080 8.18009366
O -2.85175000 -9.27874900 -3.22504000
O -2.53892300 -2.31971200 9.62493400
Pu 6.16731600 4.04708800 -2.70506500
O -10.03333006 2.38541055 0.91737963
O -1.09560100 -4.19992800 -6.24295100
Pu -0.52413900 -3.18415400 3.35520300
O 7.39401100 -0.76132400 4.53710300
O -4.18604600 5.94416900 -1.56651900
Pu 2.85424931 -2.11099210 2.54827478
O 3.85362800 8.88698200 5.74098000
O 5.18065700 0.26271100 -2.54444100
Pu 3.05640600 2.14955400 3.17947400
O 2.42185700 -3.08945800 -7.09207500
O 8.55860981 3.16615189 9.88613836
Pu 1.18055261 -12.63388962 -0.97520661
O -7.59529500 1.68277300 2.41328500
O 0.06168800 -9.00894300 1.35555000
Pu -6.99801893 -8.40994829 -0.16441708
O -7.63786880 -0.65195909 -6.56431473
O 2.79679700 -3.87610000 1.75462700
Pu 7.01456500 -2.96453400 -7.90460700
O -4.30682340 -9.87547303 -4.95321977
O -0.86532600 -2.31311700 -1.15003600
Pu 6.17884100 -7.26087800 -2.97865200
O 7.74299600 -7.77086400 0.24816000
O -8.49877100 -5.18946800 3.39616200
Pu 3.39384900 4.64812700 -0.59715100
O -10.51006000 -2.03223100 -3.64736700
O -6.10797400 -3.76283500 1.59653200
Pu 0.15180600 -8.09479100 -7.47176300
O 6.12517000 -1.75337000 0.62788200
O -5.66628100 1.31387500 5.15268700
Pu -5.39859013 -4.15976065 8.11829010
O -2.45312400 -6.38518600 0.14855300
O 1.57876900 2.60026600 -9.32952700
Pu 6.22853200 3.22405100 1.69602500
O -7.57538200 -1.97386000 7.73039200
O 4.88209022 7.52794293 3.31646919
Pu -3.53038803 1.51329705 0.64135317
O 1.23660900 5.10331100 -0.92383400
O 0.38877400 -2.84296900 0.83419900
Pu 9.21472034 0.47162354 3.99609896
O 5.22436800 2.62989700 4.09796700
O 0.11594845 6.64883587 -4.94975454
Pu -4.54505100 -5.68957800 -0.33778600
O 1.39470100 -3.64499900 3.37879900
O -6.85296900 4.45892700 -1.72935300
Pu -1.96116658 -0.15633082 9.21111639
O -5.82660200 -1.66053600 3.72189000
O 8.94800600 -0.09632400 5.80855100
Pu 2.33173800 -0.92628900 -7.14417100
O 6.92241700 0.34452000 -5.82567500
O 2.56363100 -10.08780500 3.81217900
Pu 8.33664200 2.25399300 -5.10671300
O -3.91958100 -6.37159500 2.04235300
O -0.55294700 6.35294400 -10.45534700
Pu 3.32580700 7.59555200 7.29557500
O 6.21770000 0.91775800 8.98762600
O -1.75420300 -0.86035700 2.09766900
Pu 9.38350892 -4.19398727 -2.95959428
O -2.61954800 5.49008800 -2.92650600
O -2.53497113 0.37724815 -2.08469324
Pu -5.35250300 5.04974900 6.24050500
O -6.34851300 -5.64731600 7.17950800
O 1.33798100 7.73328700 1.30393200
Pu 5.93029700 -4.35787700 -4.66670800
O -0.50559100 -1.78864100 6.03807400
O -0.15736600 -0.86257100 9.04014200
Pu 4.59359900 7.53863400 -3.70237100
O -2.77452000 2.86221300 7.75071000
O -7.93497139 -6.51661935 -0.74877173
Pu 2.30032400 0.76782300 -10.35717800
O 2.26262500 -1.37222200 0.86394200
O -7.45296000 1.20873500 -2.90735400
Pu -0.53902400 -2.68577400 -3.70563800
O 6.92932700 8.43604300 6.17509700
O 9.91032300 4.54118600 3.29837700
Pu 8.06429600 4.73016600 4.69743400
O 12.51394900 -1.54865100 -0.45462400
O -2.58788600 1.71081300 10.83011200
Pu 2.57817000 -5.98309000 1.77187400
O -0.16170400 -6.57155800 -0.79662600
O -11.05130874 0.03215226 6.42442136
Pu -7.69122148 3.51932349 8.25578045
O 8.42840402 5.91828765 7.71332300
O 2.09299300 1.20672200 -2.31973000
Pu 11.37566700 -1.08278400 -2.08580600
O 1.24570937 -2.49477526 -2.89338469
O -4.43069100 -0.06205800 2.04338700
Pu -7.46658500 -1.41535300 -1.85640500
O -4.94326400 -1.53709500 -3.83304600
O -2.38302300 3.00707900 -6.69141100
Pu -6.00868200 -1.41283100 1.45033000
O 4.45315300 -5.90718600 -1.63960100
O 8.86575324 3.65356741 6.06694869
Pu -10.02164207 0.15464638 -3.38783923
O 9.96894400 -5.27546200 -1.39499400
O 3.09228800 -0.94968800 -1.43566700
Pu -7.33237000 7.25259600 3.04183600
O -1.96491200 9.40659000 -3.41178600
O 1.91641900 -8.45955800 -2.36429300
Pu -2.91576324 -4.09342714 10.36657366
O -3.57487400 9.24486000 4.73039000
O 5.03806700 8.68699800 -1.63122300
Pu -9.12409919 -3.49920541 -4.20257805
O 12.06074077 2.82148600 0.71031901
O -9.64570520 2.18266661 5.02809954
Pu 3.86655945 4.00421744 -8.90794777
O -0.94217002 -5.77520347 8.08037057
O -4.25895600 -7.08557300 4.61011600
Pu -9.57702394 4.34060703 -4.07600210
O 3.12525100 -7.38583100 0.17411500
O 9.44275700 -2.27779900 2.72106200
Pu 1.34401000 -2.46897900 -12.05492700
O -3.88252369 7.52631708 -4.43741007
O -8.87673821 -3.85536520 6.58179524
Pu -1.72740561 3.30177689 9.39915713
O -4.64035300 -8.70182300 0.31614600
O -2.23837200 -2.43518700 -8.96405800
Pu -2.40162000 4.95992600 -0.89326300
O -2.00103200 10.97778900 4.01828400
O 4.56193500 3.89600000 -4.32146000
Pu -3.94239026 1.76485375 6.61021806
O -4.49665800 -3.82564100 -1.26413000
O -1.30245200 -0.45441500 -3.52093000
Pu -1.61648500 -7.62259300 2.58374000
O -1.61242400 -4.54166000 5.02966100
O -7.62822383 -0.54820010 5.52033720
Pu -0.28318838 2.23724401 5.79435109
O 1.00355000 -3.71937700 6.33082200
O 5.20006400 -7.81806400 2.30652200
Pu 3.09604200 -1.06747100 -3.76488400
O -7.73427300 3.84501600 5.83817300
O -5.35922800 -1.50838300 -0.59592400
Pu 7.49704000 0.74740200 6.89508200
O -4.55289800 6.04433500 1.71621400
O 5.04546000 -6.30408200 -4.41205900
Pu -7.72235526 1.53790293 4.56893420
O 1.41257600 1.23706200 4.58315200
O 6.88430700 -0.82535000 -8.48053100
Pu -9.49989600 -1.79921800 6.99219500
O -9.78896100 5.39333239 -2.48982701
O 8.47530894 -3.80772246 0.53854937
Pu 2.42707500 -5.79945600 -2.17246700
O 11.58344853 -3.14771779 2.17993899
O 6.99419816 -2.61167026 -5.52580428
Pu -1.55761600 8.46516600 -5.73246000
O 7.58633200 -2.77305200 -2.69094900
O -10.56846800 2.00058400 -3.04071900
Pu -4.03236407 7.25684729 4.19854367
O -1.31049100 8.13644700 6.27586700
O -0.27580800 -3.65537100 -10.81636600
Pu -5.80605700 -1.40570500 -5.73121500
O 3.47601400 -0.16866400 -5.65721700
O -3.33226300 -0.20936200 7.25848000
Pu -3.54847800 -10.31754100 0.21868500
O -3.86697253 7.60334364 -9.03976023
O -8.33578100 -3.31484200 -2.27728100
Pu -4.80443300 -9.01462000 -3.20895300
O 1.54847500 -4.51854500 -0.52412600
O -2.32030500 7.46606100 0.11967100
Pu -6.45022100 4.05277200 2.60396900
O -0.28577351 -8.36536213 -3.14280245
O -5.86692000 6.94305700 4.96383200
Pu 8.86760600 -6.18129600 0.63323500
O 4.29238100 2.64855400 -7.02112600
O -3.53700616 9.97523579 7.33091367
Pu -0.84729400 1.46763500 -2.39522200
O -2.86755800 -2.74417400 3.17728800
O 3.38858500 -1.25256400 6.07140600
Pu 5.47648615 8.71565791 4.70912671
O -7.98406600 5.23683200 3.29137000
O -4.28544100 8.91529800 -1.27880600
Pu -2.56835100 4.15679900 2.99260200
O 2.03965600 -7.84028500 2.34402600
O -8.18863000 -1.32719000 1.16384700
Pu -7.61679915 1.13281957 -5.89181933
O 6.90103500 3.63199600 -4.92654700
O -6.67433600 -9.55849600 2.09443900
Pu -8.00435500 -5.00463100 1.44771000
O -2.63136572 0.03496244 -9.94474795
O 7.68368900 -5.74689400 -3.85009800
Pu -1.11050300 -10.76888300 -3.33428800
O 2.76459500 5.92997000 8.02161100
O 0.38970906 -0.30149475 -7.31308977
Pu 0.38019600 -8.39817800 -0.90287500
O 4.05388519 -3.50166188 -1.85592821
O 6.88454876 -5.06912108 5.72824324
Pu 0.92014900 5.89921300 -2.97680800
O 10.24639000 -6.30101100 2.77013600
O 0.04149400 1.32116700 -0.19586600
Pu -3.20679200 11.37389900 5.53982300
O -1.74506400 -8.89085500 -7.94115000
O -2.89866300 -3.23953700 -2.95329700
Pu 6.41741929 7.78563143 -0.50111132
O 3.72232900 0.47978500 -8.10324800
O -3.08954187 9.03505012 -7.01546370
Pu -0.44114900 -0.59034000 0.06839300
O -2.87728500 -9.44218800 2.22557100
O -0.85243500 -7.62135000 4.39103100
Pu 5.87682000 4.75980300 -6.25734900
O -1.19668300 3.34169000 -1.09282000
O -5.31216700 4.74274200 4.14827000
Pu -0.87077900 -4.69125300 -0.08285600
O 7.72082100 2.46552300 -7.12620500
O -2.34524742 6.45655964 3.68095376
Pu 4.97694600 -1.23367200 4.58754400
O -4.28182800 -3.12233400 -5.43859100
O -8.13959100 3.56893200 0.09533600
Pu -4.61166700 7.44798700 -6.70152300
O 3.46776400 2.99601800 7.40204200
O 1.13668400 7.11776100 6.33667600
Pu -7.39343900 -4.96761000 5.40379000
O 4.03875300 -8.51226800 -3.71688100
O -8.08445200 -1.12050000 -3.95711400
Pu 1.55529200 -1.38895400 7.41242200
O -5.54309600 5.64538000 -7.03414500
O 1.35564400 -6.27848300 -3.86155100
Pu -1.81060700 4.46235000 -4.96477100
O -9.11366300 -8.60445500 -0.50884000
O 2.83534800 5.11742100 -2.73150800
Pu -6.73569600 2.45404600 -1.62288200
O 8.16894459 8.41927562 -1.52697535
O -3.27271100 -4.27315900 7.92893900
Pu -5.13516543 -8.18722379 2.62057371
O -1.94618700 -10.59748900 -1.12942600
O -0.05651100 -3.25883900 8.53098000
Pu 11.05469800 -1.44021800 1.11566200
O 5.50598700 0.23549900 6.09529200
O -5.42235700 -10.15013300 -1.60259600
Pu 3.86461100 -4.85372200 -8.15456700
O -4.86942800 3.33143500 -3.29965900
O 5.04640300 -8.95124100 -1.44877600
Pu -5.11247300 -3.80671200 -3.69379300
O 1.56297900 -4.64402900 -9.25105600
O 8.98905300 -3.88005100 4.81915100
Pu 4.87316000 4.05304200 5.79443000
O 0.26463300 4.54107300 -4.36833200
O 3.53722600 -6.34216800 5.15698500
Pu -3.97736600 -5.20561700 3.92622900
O 7.03473300 2.42379300 -0.16162600
O 3.36732106 -10.23699674 0.15246104
Pu -0.01514800 -3.11462300 -8.14316800
O -1.33222440 11.19416695 5.91808997
O -7.12413800 5.59206200 1.48259700
Pu 8.41656600 1.28612200 -1.04380400
O -1.07621900 -5.04370900 11.64957200
O 10.09828600 -0.38718200 -0.45369500
Pu 0.44035200 -4.94986900 9.58850400
O -2.97018200 -5.92539700 -8.15666900
O -3.93606900 -1.51681700 5.52390600
Pu -3.22592100 -0.89129900 3.63100600
O -1.36640300 2.47646000 -4.18161600
O 2.03160800 -4.19862700 8.59257900
Pu 10.47790100 -4.36116500 3.56338300
O -0.34944700 5.17919100 4.05217900
O 5.14405916 6.43552046 6.08640956
Pu -3.69678600 -4.46364800 -6.97961300
O 3.01614600 5.05667600 -6.44399900
O 0.52815500 -10.41892500 -2.14545500
Pu -1.34833368 -1.14826396 -10.72777066
O -1.95667500 -7.17961300 -5.80045800
O 10.15720800 3.20349000 -0.87164300
