420
ML-kMC step 2000
Pu 1.53458898 5.76067700 4.23395430
O 2.35646638 0.27210609 7.47794735
O 4.85183527 -2.78708741 -3.77804487
Pu 2.63618872 3.25690349 -5.26211909
O -5.39945732 8.24882940 2.24198374
O 10.35747459 -2.48617114 -3.18013068
Pu -7.92513341 5.69072655 -0.44110151
O 3.02027849 -11.78218292 -1.91363611
O -6.91847677 -3.31692002 -4.84147754
Pu -4.10158130 3.58032061 -7.38298018
O 1.10631888 -6.66608344 5.77948175
O 4.88952063 7.17867140 8.46400456
Pu 5.44137629 -5.90758509 3.72432614
O 2.26390426 2.60082258 0.31342401
O 5.62527473 5.99495015 -4.57339995
Pu -1.37084946 5.39138820 6.36762474
O -5.96138253 0.66772805 -4.99606577
O -4.20927052 1.15294371 -1.44706084
Pu -5.57447680 5.14029095 -3.44432218
O 7.90134373 2.57200275 -2.59509827
O 3.94397209 -0.68119316 2.86490729
Pu 1.64639672 3.91287311 8.13348870
O -4.48385965 1.31161832 -7.91563561
O -6.13689596 7.38365844 -0.94637384
Pu 0.23885159 -5.51778764 -10.51757831
O 2.01440440 7.54277793 -2.46053942
O -5.71330443 2.69355223 7.68301781
Pu 5.84471923 -3.24105201 -1.10180603
O -1.36546319 2.89805625 1.88751022
O -0.53782752 3.46327206 7.70836357
Pu -0.61158152 6.92013042 1.40809966
O 4.71240679 -5.54118518 1.78268042
O 0.77435130 4.13003306 5.99457170
Pu -3.54433497 -0.49387010 -8.23622521
O 1.15508985 -6.29594891 -6.17933405
O 0.59059145 8.76725029 -4.81798374
Pu 0.29764600 3.11177300 0.67131700
O -1.88226069 4.06690075 -8.61308632
O 4.70247676 -3.32109383 3.94326529
Pu 0.23582226 4.11935795 -9.32184184
O -6.58741786 5.14954260 7.57730397
O 0.71582169 -1.47511664 -9.35049773
Pu -3.57624794 -7.74267042 -6.66103313
O -4.61096642 -5.88196321 -6.22228708
O -5.85043976 -5.58777916 4.20924405
Pu -0.85907900 -6.29023000 5.95933500
O 6.05285951 2.56684510 6.55238879
O 1.02689090 -11.66360179 0.75326664
Pu -2.82989093 8.09607454 7.68797683
O -2.14084457 2.20104495 4.96812189
O -9.42669251 6.14311897 0.72261377
Pu 5.65271505 0.98819710 -7.76235547
O 3.46762969 -6.42698955 8.00864256
O 0.39144858 7.44352585 3.38248588
Pu 4.54032688 0.76827639 7.81205354
O -4.22572242 -5.80250439 -3.43069209
O -9.58932245 -5.17192470 0.33147766
Pu 7.39445851 -2.81712816 1.92878501
O 1.41436700 3.67548300 3.14296400
O -0.90563646 7.27061551 -2.37544627
Pu 0.17738221 9.18469421 -2.59188474
O 4.90112497 8.34737161 1.20167284
O -6.14948758 -6.72099553 1.22726858
Pu -1.80901373 6.73809874 -8.50948385
O 4.00242216 6.65833999 -0.09786417
O 4.19496728 1.78964002 -9.75223544
Pu 2.34417272 -8.23787668 4.41595842
O -4.61063227 2.44852173 2.54844001
O 1.70177215 9.67532596 -0.80514973
Pu 2.79926624 -5.26025295 6.62577599
O 2.86442100 -1.23068770 -10.78786895
O 0.30868720 -7.04959624 -9.09878915
Pu -8.92980566 5.10925100 5.05776663
O 9.48896603 0.60666057 1.95395973
O 4.79959207 -2.96479601 -8.35111355
Pu -0.75201405 -6.53548874 -4.11039442
O -8.49328165 6.98365469 5.00446211
O -7.32655690 5.14500052 -4.51478928
Pu 5.08603174 6.09790071 1.94890470
O 4.03640749 4.34523366 1.39953429
O -8.40938587 2.91238225 -5.22861299
Pu 11.89310950 3.06432047 -1.36175323
O 6.68234981 4.83385599 6.74829037
O -2.15413085 6.09859878 8.16163195
Pu 3.57227361 1.12751961 -0.80863485
O 0.28384725 -1.63748670 -5.32041834
O -5.68702348 -3.23925026 6.36845088
Pu -0.97481880 0.94428938 -5.80316603
O 4.20353209 5.28432064 3.70726484
O 3.12105799 7.47086497 -4.99660612
Pu -10.75849052 1.99069521 6.38576467
O -10.11527418 3.99984594 6.49956874
O 12.67014220 3.83523523 -2.95642208
Pu -9.64305425 4.03121740 1.30300831
O 5.48900287 5.93760660 -1.68560982
O -3.29415740 4.50655704 5.62630542
Pu -8.97597173 0.39963186 0.50633568
O -10.05845641 4.23301383 3.19672120
O 1.05932557 -8.91730601 -5.70251726
Pu -9.31239782 -5.97875845 -1.47944972
O -2.33127182 -0.18788386 -0.07632348
O 2.28678108 4.77953912 -9.60308766
Pu -1.68223017 -3.04498561 6.84740261
O 4.61713668 1.86041589 1.80839935
O -3.78478300 6.61732213 6.63422574
Pu -4.70179222 7.75806867 0.32662273
O -3.62230184 0.59354549 -5.70259792
O 6.68902990 4.68269072 3.33252798
Pu -0.75538170 9.05681596 4.49850252
O 0.61543942 4.14132165 9.82886042
O 8.28671635 2.66464583 2.68418879
Pu -5.83633463 -1.21656521 5.75636702
O 0.05051519 0.41470398 -10.54425979
O 4.87064811 3.16167466 -1.07111384
Pu 6.91513520 -0.98684778 -3.89909556
O 7.03040783 -5.65830144 -1.45564682
O -2.15825136 6.01740645 -6.04174226
Pu 1.67804024 -10.11019671 1.76486552
O 6.34760655 5.31688375 0.73216922
O 10.74198421 1.13489504 -2.17212128
Pu 9.81716966 3.51818922 1.37239967
O 7.27821268 -4.79968282 2.58462156
O -1.26432126 1.29975377 7.75189069
Pu -3.32075485 -1.47497076 -1.86443189
O -0.25377769 7.73738772 -7.22838431
O -0.44241648 -1.93645855 -12.37168776
Pu 1.66174511 7.10957252 -6.22574822
O -9.72577886 -4.89754925 -3.19089568
O -0.53423080 -12.16016983 -2.25512581
Pu 2.17157858 -2.62398947 -1.49870056
O -7.35183257 0.33564260 -0.90322583
O -4.53944207 -4.51615852 9.80233941
Pu 3.46890127 -9.79812416 -2.17518495
O 6.41569200 -4.48693264 -6.59731108
O -0.15733688 -4.80222953 -2.32182740
Pu 3.06733530 8.41120867 0.04912630
O 8.49419233 0.14951690 -3.61411995
O 3.68134279 -6.32840342 -6.61346902
Pu 2.49304457 -7.53734115 -5.13761996
O -4.28460491 3.93635911 -5.42336471
O -9.67461933 -0.34505692 -1.35122998
Pu -3.19129523 7.73523515 -2.52666769
O -0.87639093 -5.13478977 1.89060715
O 5.13650823 5.29822080 -8.21924097
Pu 4.86282899 -8.03754594 0.32893043
O 1.20547473 1.61019340 -4.52215544
O -3.23527222 3.55338161 0.43262125
Pu -4.22273207 1.04877856 -3.88016326
O 1.57669818 -4.39237532 -11.57106796
O -5.80573268 -7.57951444 -1.74514842
Pu 7.49451071 -2.97189734 5.83926865
O -4.55667674 -1.78655346 -7.14325125
O 6.74968857 -1.48484950 6.82256286
Pu 6.69432176 6.74941705 7.56234544
O -0.76449056 4.94626077 0.99775210
O -8.82294167 2.00750766 7.86519719
Pu 8.10331810 4.03854900 7.94486494
O -2.53355638 -8.86551757 -3.20683219
O -2.61640765 -1.95945194 9.56647308
Pu 6.03484613 4.06311665 -2.56933159
O -10.00325431 1.94573290 0.93356301
O -1.03087400 -4.10259600 -6.56571740
Pu -0.57291370 -3.11335787 3.02042618
O 7.31875861 -0.90719710 4.39209089
O -4.15906051 5.85902036 -1.53150740
Pu 2.72767647 -2.24796095 2.51871271
O 4.01949962 8.85290396 5.74255201
O 5.20276097 0.08674638 -2.58922333
Pu 3.05640600 2.14955400 3.17947400
O 2.43284281 -3.06218252 -7.16582632
O 8.48890033 3.24061714 9.67911002
Pu 1.25862379 -12.03173930 -1.13035565
O -7.54432544 1.74191813 2.56407294
O 0.04520341 -8.95472757 0.99081104
Pu -6.84999374 -8.27361945 -0.06570153
O -7.36901500 -0.74965701 -6.78936743
O 2.81306049 -3.74600316 1.33348234
Pu 6.76454737 -2.78843006 -7.54123526
O -4.27238170 -9.20076289 -4.74210432
O -0.50699319 -2.27523219 -1.18530451
Pu 6.02073089 -7.10138722 -2.76439240
O 7.26671472 -7.62630917 0.53333086
O -8.13396110 -5.06233676 3.27649592
Pu 3.36254942 4.64063985 -0.60059986
O -10.28348357 -1.75542273 -3.71197216
O -6.21440997 -3.78060269 1.07473707
Pu 0.16084528 -7.77866028 -7.19774602
O 6.36440563 -1.53528754 0.50135273
O -5.78390024 1.34448986 5.20040859
Pu -5.40753905 -4.15326047 8.04323309
O -2.43910005 -6.40387286 0.14589350
O 1.59964077 2.56403027 -9.18720915
Pu 6.23963085 3.21037547 1.71454669
O -7.08392560 -1.90568759 7.46439161
O 4.94900706 7.43958972 3.38461312
Pu -3.50747632 1.37810418 0.64007873
O 1.26364719 5.16139869 -0.88072957
O 0.57616145 -3.33799599 0.96599736
Pu 8.57848480 0.57430649 3.76820247
O 5.26433591 2.66514981 4.16132599
O 0.09020665 6.67551737 -4.98180072
Pu -4.59371959 -5.75017142 -0.34332369
O 1.39083600 -3.64823577 3.37690420
O -6.82829501 4.43752572 -1.77297374
Pu -1.92511547 -0.14303270 8.87301347
O -6.04117729 -1.47805971 3.74771699
O 8.90536703 -0.08946904 5.72698057
Pu 2.21770056 -0.91704797 -7.17072550
O 6.65421687 0.10779357 -5.43887913
O 2.40587855 -10.01603336 3.66814126
Pu 8.12321319 2.09152101 -4.71902072
O -3.76194005 -6.40647064 2.04637293
O -0.42697068 6.00628492 -9.65752814
Pu 3.15120734 7.42453728 7.14771062
O 6.33202700 0.93936012 8.42400074
O -1.61624814 -1.10064103 1.77902639
Pu 8.91122853 -4.29072802 -2.89017122
O -2.64461956 5.56113288 -2.89329477
O -2.34495780 0.52827877 -2.06351637
Pu -5.20986739 5.02611167 6.18152077
O -6.46515150 -5.53684779 7.03901007
O 1.40737989 7.52826638 1.22912059
Pu 5.91235326 -4.35813111 -4.67714554
O -0.34144918 -1.72226777 5.98235350
O -0.06221551 -0.53929566 8.87021220
Pu 4.28604574 7.03993108 -3.35932198
O -2.86938982 2.97384538 7.67617536
O -7.32668219 -5.90004731 -1.00923416
Pu 2.23698886 0.67302842 -9.90373828
O 1.63367664 -1.33246599 1.00208135
O -7.54101029 1.03801509 -3.14602258
Pu -0.55210188 -2.69339153 -3.70901340
O 6.96293408 8.14560860 6.14340802
O 9.48022648 4.58117937 3.06355005
Pu 8.18221637 4.82440531 4.61836131
O 11.97788013 -1.34488843 -0.43785342
O -2.36800632 1.65712764 10.19398036
Pu 2.34990494 -5.88507083 1.55786227
O -0.16556900 -6.57479477 -0.79852080
O -10.58667876 -0.02212936 6.50624042
Pu -7.47545524 3.51869421 8.08578111
O 8.63926728 6.07684759 7.19844841
O 2.10321498 1.15974165 -2.37504318
Pu 10.99942306 -0.97390073 -2.16784351
O 1.33542827 -2.14658896 -3.40010563
O -4.21429642 -0.43713784 1.32052696
Pu -7.47342262 -1.40819073 -1.85960623
O -4.98516207 -1.51668565 -3.79511909
O -2.42815752 3.00206834 -6.64534077
Pu -5.99164879 -1.40150546 1.46761841
O 4.46332442 -6.09884921 -1.75496606
O 8.94632306 3.70874521 5.98099934
Pu -9.76349374 0.09535697 -3.24421818
O 9.66162105 -5.22212493 -1.36500806
O 3.50104358 -1.19072065 -1.44426218
Pu -7.18182560 7.20130734 2.96877015
O -1.90476526 9.11701739 -3.59135012
O 1.95682881 -8.42984374 -2.46785251
Pu -2.68074350 -3.85530937 10.34957868
O -3.58000289 9.15255705 4.83710261
O 4.84850128 8.28811839 -1.57767556
Pu -8.94799060 -3.27522647 -4.10278102
O 11.66994308 2.66786993 0.80516358
O -9.53316876 1.65280795 4.92548934
Pu 3.79648214 3.91885929 -8.69190103
O -0.73644092 -5.48617036 7.74625901
O -4.28059080 -7.12797014 4.31044495
Pu -9.02966498 4.24032053 -3.77447578
O 3.09457193 -7.34128719 0.08657804
O 9.29182651 -2.20002443 2.71175519
Pu 1.32838919 -2.39696330 -11.51282587
O -4.07872218 7.32205976 -4.25562704
O -8.58842238 -3.76060301 6.20831044
Pu -1.67152021 3.26738581 9.30692496
O -4.52898823 -8.41976976 0.60661952
O -1.75341025 -2.11929772 -8.55810202
Pu -2.51713711 4.86550062 -0.97858578
O -1.86590560 10.46669141 3.74549613
O 4.43714273 4.02260238 -4.39811701
Pu -4.09961043 1.69625651 6.62918688
O -4.42987795 -3.93694855 -1.30741125
O -1.09603084 -0.63820950 -3.52887179
Pu -1.59411836 -7.49989418 2.28570120
O -1.58151700 -4.53387958 4.99455673
O -7.65296548 -0.54696360 5.49375912
Pu -0.41082640 2.29158328 5.75579035
O 0.95608001 -3.69030678 6.11673131
O 5.05162912 -7.78267773 2.35290257
Pu 3.23169194 -1.08400624 -3.80708341
O -7.39457703 3.63548535 5.46569152
O -5.45957198 -1.46742599 -0.66757927
Pu 7.35876875 0.52205620 6.73455802
O -4.51477519 5.97537470 1.71736369
O 4.88621501 -6.07077935 -4.39902895
Pu -7.60727641 1.34157846 4.63323172
O 1.37987450 1.32647940 4.33741559
O 6.69346004 -0.68495467 -8.16162057
Pu -8.97911573 -1.76583532 6.58379775
O -9.37745257 4.93652135 -2.03109951
O 8.49659442 -3.63707871 0.49332232
Pu 2.46157790 -6.04866501 -2.14486463
O 11.36031026 -3.18768774 2.13230131
O 7.05782361 -2.51705663 -5.46539708
Pu -1.41936550 8.35568442 -5.56298380
O 7.53407256 -2.80178448 -2.59324148
O -10.05251663 2.07237827 -2.91466752
Pu -4.06421371 7.37369237 4.29399450
O -1.19193818 7.92164389 6.18135737
O -0.31560679 -3.34536363 -10.40644633
Pu -5.78797498 -1.38734144 -5.71417483
O 3.54570760 -0.33400676 -5.65016322
O -3.41746921 -0.05501068 7.34429379
Pu -3.30335040 -9.88360979 0.13097770
O -3.70848881 6.90142425 -8.53482817
O -8.17734345 -3.14337650 -2.18665449
Pu -4.44982094 -8.44261703 -2.85372666
O 1.47769272 -4.37858923 -0.86336219
O -2.22520526 7.16033692 0.09243871
Pu -6.44887983 4.02152272 2.65595930
O -0.33343527 -8.32970783 -3.01067696
O -5.80078133 6.93795767 4.96607406
Pu 8.48033204 -5.82410561 0.61156959
O 4.51123083 2.72785255 -6.91634264
O -3.63034430 9.96339505 7.41752188
Pu -0.34936588 1.14507726 -2.51123414
O -2.67177948 -3.05992788 3.06324442
O 3.59393505 -1.24126887 5.96694216
Pu 5.68125613 8.66540245 4.76812662
O -8.00761726 5.21392437 3.27644913
O -4.05929111 8.89045526 -1.14515769
Pu -2.55854249 4.16475482 2.99547785
O 1.88906123 -7.82403965 2.23256494
O -8.09870268 -1.18669915 1.08859778
Pu -7.61796556 1.13243963 -5.90226195
O 6.87501436 3.64250452 -4.74990421
O -6.47819620 -9.28601829 1.75541309
Pu -7.72433504 -5.11359922 1.27383556
O -2.79720695 -0.01309836 -9.99756837
O 7.44358167 -5.39566814 -3.66664820
Pu -0.94210791 -10.27798153 -3.15589753
O 2.62765323 5.68020733 7.76922197
O 0.22934593 0.11061227 -7.44281939
Pu 0.38427213 -8.39074448 -0.89881245
O 4.05212014 -3.48826697 -1.88860337
O 6.42358777 -4.73215097 5.26772391
Pu 0.86725733 5.91041175 -2.98286704
O 9.56685102 -5.92181635 2.52930072
O 0.55780205 1.33666697 -0.48069480
Pu -3.09683145 11.04597311 5.46325599
O -1.72791388 -8.48052881 -7.55438548
O -2.83753071 -2.97286700 -3.01226881
Pu 6.27968215 7.69200777 -0.41437756
O 3.62794174 0.50289655 -8.02252932
O -3.09110459 8.63598401 -6.58147466
Pu -0.45364134 -0.78855826 0.11983317
O -2.81061159 -9.11765947 2.07114911
O -0.69991757 -7.45545993 4.15099494
Pu 5.80929083 4.62436275 -6.08923009
O -1.19724415 3.35314633 -1.09506747
O -5.30225902 4.77925561 4.21982053
Pu -0.95020582 -4.69394411 -0.10364762
O 7.52577741 2.24019420 -6.75066500
O -2.44905917 6.51662527 3.70160896
Pu 4.97801982 -1.12348668 4.56512623
O -4.28797766 -3.11937008 -5.42246997
O -7.89474555 3.65683440 0.17057854
Pu -4.46688785 7.07205690 -6.49606617
O 3.65446112 3.03578334 7.31997756
O 0.84023939 6.70587009 6.07856051
Pu -7.34174749 -4.96039029 5.28866517
O 4.07385379 -8.37563681 -3.70207135
O -8.05181909 -1.02547333 -4.04973257
Pu 1.40637166 -1.55006775 7.34783665
O -5.42433731 5.39602227 -6.96117977
O 1.36024159 -6.28505922 -3.85947684
Pu -1.83419498 4.49880454 -4.88983613
O -8.79710295 -7.88264337 -0.51648265
O 3.12002969 5.09654116 -2.71351671
Pu -6.55754387 2.14263349 -1.64536026
O 7.92143647 8.03712381 -1.50602034
O -3.31088733 -4.13429161 7.82548547
Pu -5.01789637 -8.00252401 2.60656256
O -1.45815866 -9.63369999 -0.70791409
O -0.18557900 -2.91904718 8.43732554
Pu 10.71176483 -1.42859333 1.12309213
O 5.39518316 0.22759192 5.95622906
O -4.86175290 -9.96970596 -1.60958939
Pu 3.28925090 -4.77255510 -7.79864891
O -5.09820602 3.23618569 -3.40083705
O 5.10516742 -9.04975970 -1.42178274
Pu -5.01863832 -3.86357848 -3.61607785
O 1.61632406 -4.59748255 -8.96074129
O 8.86265823 -3.74552390 4.72418126
Pu 4.81155480 4.12194589 5.70157490
O 0.22300220 4.54164154 -4.34403773
O 3.55026410 -6.39245769 5.12434910
Pu -3.95321365 -5.26623754 3.82663458
O 7.10832011 2.60192036 -0.11089606
O 2.99861239 -9.83428586 -0.16589265
Pu 0.02368388 -3.16251988 -8.17432798
O -1.14759893 10.61339718 5.94507913
O -7.06948372 5.55156568 1.53131158
Pu 8.32750230 1.21694768 -0.94332724
O -0.98001562 -4.76987409 10.74918115
O 9.59290929 -0.45000517 -0.45008185
Pu 0.45128424 -4.57405809 9.38349346
O -3.10743288 -5.47942778 -8.32906489
O -3.69045028 -1.25092875 5.45839150
Pu -0.90307564 0.54114206 3.26285417
O -1.57148204 2.48101346 -4.28217043
O 2.02346413 -4.15027723 8.31614417
Pu 10.12715695 -4.23099517 3.35511908
O -0.37519431 4.75592573 4.08789176
O 5.13484134 6.45394727 6.06884626
Pu -3.50896354 -4.32112582 -6.80805891
O 3.00857480 5.09053961 -6.41771540
O 0.84698934 -10.32647645 -2.22077766
Pu -1.24725352 -1.10227208 -10.50129657
O -1.88555347 -7.19444388 -5.81622419
O 9.95967981 3.21495056 -0.58693299
