420
ML-kMC step 3000
Pu 1.42756675 5.76009567 4.24491182
O 2.33397943 0.31924016 7.39624407
O 4.79295705 -2.78144220 -3.78013611
Pu 2.48522127 3.41453444 -5.10084779
O -5.30442132 7.98151301 2.37744746
O 9.97440860 -2.36632736 -3.09911569
Pu -7.93280428 5.69730387 -0.45216065
O 3.03337531 -11.68245391 -1.90581482
O -6.78961872 -3.05986296 -4.86044021
Pu -4.11152814 3.57544937 -7.39103786
O 1.05908232 -6.67525629 5.74315227
O 4.84085987 7.25866335 8.30685996
Pu 5.36161841 -5.83286561 3.67749348
O 2.22873001 2.58818257 0.33338515
O 5.84190368 6.18865610 -4.69386553
Pu -1.44149213 5.34567900 6.21356095
O -5.94756310 0.65936335 -4.90118418
O -4.21419604 1.14622710 -1.43518068
Pu -5.57152588 5.07915473 -3.45898486
O 7.97773857 2.55609851 -2.60809685
O 3.94397209 -0.68119316 2.86490729
Pu 1.59435756 3.90676445 8.07940602
O -4.38105882 1.52148865 -8.37555742
O -6.11299532 7.39559073 -0.98451522
Pu 0.54275436 -5.49839498 -10.41432269
O 1.99174119 7.49591130 -2.39986884
O -5.58280989 2.80244888 7.64731222
Pu 5.91497947 -3.29478332 -1.16046460
O -1.36546319 2.89805625 1.88751022
O -0.56428958 3.47300230 7.68989784
Pu -0.57655429 7.00638087 1.49147249
O 4.61912499 -5.65136729 1.76438201
O 0.71024022 4.06621656 5.82962389
Pu -3.50063590 -0.33873819 -8.19721885
O 1.18854972 -6.28636708 -6.08598695
O 0.51299952 8.81474493 -4.72615359
Pu 0.29764600 3.11177300 0.67131700
O -1.76104942 4.07074668 -8.48120767
O 4.69012250 -3.34090002 3.95994296
Pu 0.23356949 4.01464775 -9.27411253
O -6.65154994 5.26896396 7.57196467
O 0.91827710 -1.35517379 -9.44675092
Pu -3.59742646 -7.79725874 -6.59911237
O -4.79906130 -6.02534153 -6.32176778
O -5.85272917 -5.56063019 4.20955068
Pu -0.82497010 -6.19028110 5.81855955
O 6.03458383 2.56207324 6.52161357
O 0.91663731 -11.54951107 0.69985778
Pu -2.80798056 7.98562289 7.56958370
O -2.07469934 2.14049074 4.93240675
O -9.40361142 6.12612356 0.72607406
Pu 5.56046419 1.09959164 -7.80849428
O 3.43991727 -6.26228635 8.00347723
O 0.33117571 7.42949198 3.49816219
Pu 4.56901051 0.81518154 7.59953829
O -4.08398342 -5.76436685 -3.36773011
O -9.36139112 -5.02293378 0.29946839
Pu 7.39251190 -2.81247011 1.93065996
O 1.64847166 3.74131412 3.18864715
O -0.90563646 7.27061551 -2.37544627
Pu 0.19518913 9.20858108 -2.57404802
O 4.88205260 8.66837470 1.01848741
O -6.06384715 -6.57903545 1.25724632
Pu -1.74857092 6.75517461 -8.37904834
O 3.99840268 6.57619062 -0.14046099
O 4.37858201 2.08347923 -9.75630650
Pu 2.26008275 -8.20331194 4.39967395
O -4.70249532 2.50179781 2.34197631
O 1.68950577 9.55096360 -0.82101028
Pu 2.65520021 -5.06625613 6.58028560
O 2.93699141 -1.18577543 -10.66840087
O 0.51207328 -7.02283567 -9.20210521
Pu -9.00057005 5.12901059 5.07441526
O 9.23048882 0.32127170 1.71607132
O 4.53721625 -2.86658721 -8.02739596
Pu -0.68011953 -6.61740527 -3.92375236
O -8.21596825 6.96663978 4.87852593
O -7.24229072 5.09692277 -4.51643620
Pu 5.08603174 6.09790071 1.94890470
O 4.03640749 4.34523366 1.39953429
O -8.42198558 2.85155626 -5.20655621
Pu 11.55974760 2.93585923 -1.35364313
O 6.57534417 4.78213643 6.65391628
O -2.32578769 6.09895980 8.14697025
Pu 3.65525511 1.20368879 -0.84913773
O 0.20420621 -1.61489750 -5.28123960
O -5.63860974 -3.28311169 6.19529721
Pu -0.97192524 0.92978292 -5.83121250
O 4.10870724 5.49706820 3.89651429
O 3.05717835 7.40773159 -4.86070452
Pu -10.53079917 1.93128119 6.32591201
O -9.96592091 4.04412527 6.42638697
O 12.27633079 3.62775730 -2.98096144
Pu -9.79944262 3.95395051 1.19820929
O 5.50234352 5.97487161 -1.69488318
O -3.30346324 4.51084899 5.61976600
Pu -9.14877394 0.29760534 0.72919142
O -10.28940541 4.25330294 3.13767237
O 1.35910659 -8.95777438 -5.82334560
Pu -9.25622133 -5.88778916 -1.48681060
O -2.28247832 -0.23029607 -0.20155733
O 2.12809418 4.65441229 -9.35909944
Pu -1.64573642 -3.06266082 6.85878686
O 4.61752930 1.83658534 1.85095562
O -3.67493145 6.62291048 6.48194171
Pu -4.63104630 7.41725825 0.34762519
O -3.62975417 0.59376914 -5.73666370
O 6.68902990 4.68269072 3.33252798
Pu -0.71163601 8.96697543 4.42791506
O 0.60923905 4.09840471 9.72706285
O 8.29507496 2.60627420 2.57667273
Pu -5.86190812 -1.21317972 5.78020875
O 0.14342316 0.39191585 -10.71035927
O 4.84398075 3.22074327 -1.03420595
Pu 6.90647328 -1.02185778 -3.88968548
O 6.87555388 -5.24242827 -1.58820244
O -2.14171813 6.04703918 -6.03126298
Pu 1.67413447 -9.92585624 1.68312663
O 6.34760655 5.31688375 0.73216922
O 10.61724829 1.07381435 -2.16800994
Pu 9.81224074 3.29050068 1.45467124
O 7.34432401 -4.79107856 2.57413819
O -1.10116833 1.34885999 7.52736208
Pu -3.27903144 -1.40336906 -1.90616289
O -0.28901624 7.66562064 -7.13798249
O -0.42624529 -1.72129338 -12.24273883
Pu 1.62780187 7.06562401 -6.22410030
O -9.71860053 -4.93265609 -3.23819106
O -0.53185641 -12.13051822 -2.24755343
Pu 2.15863099 -2.62968570 -1.49300943
O -7.35240754 0.33266839 -0.90183632
O -4.54000964 -4.54491944 9.69585748
Pu 3.46943592 -9.75533596 -2.17540987
O 6.32263377 -4.39974346 -6.53977001
O -0.15733688 -4.80222953 -2.32182740
Pu 3.07875045 8.41434171 0.06116879
O 8.38285806 0.14034840 -3.48099230
O 3.71774278 -6.29780954 -6.59028180
Pu 2.56771974 -7.54564085 -5.06164111
O -4.30934492 3.90448048 -5.39939994
O -9.49869851 -0.27780494 -1.30043650
Pu -3.19896672 7.63609113 -2.54745279
O -0.86455995 -5.18665295 1.94430399
O 5.08746416 5.24420698 -7.91396944
Pu 5.02526904 -8.06416856 0.37061190
O 1.13851686 1.75041691 -4.58671603
O -3.23527222 3.55338161 0.43262125
Pu -4.36759886 0.97743327 -3.84306643
O 1.53596923 -4.32260308 -11.73205561
O -5.81184686 -7.59119867 -1.75221630
Pu 7.50239179 -2.96864032 5.83617897
O -4.51206177 -1.70094567 -7.23865165
O 6.65741643 -1.46582912 6.72720184
Pu 6.68077931 6.74947703 7.57042412
O -0.73769050 5.03275176 1.03508946
O -8.37566574 1.95349842 7.56710361
Pu 7.97784745 3.96733375 7.82227382
O -2.53715896 -8.87026487 -3.23263971
O -2.33505320 -2.21766519 9.07447883
Pu 6.03484613 4.06311665 -2.56933159
O -10.11207633 1.94423332 0.69421293
O -1.09307484 -4.03284470 -6.58496646
Pu -0.60910986 -3.18285898 2.84570340
O 7.30012864 -0.87114419 4.45587554
O -4.16074000 5.86659795 -1.52146932
Pu 2.63606534 -2.30915035 2.45697017
O 3.66679673 8.73215550 5.56429205
O 5.21422171 0.07717454 -2.88668934
Pu 3.05640600 2.14955400 3.17947400
O 2.42519204 -2.97046492 -7.05938365
O 8.27087120 3.12451854 9.51435429
Pu 1.26611104 -12.12929012 -1.17097928
O -7.66581174 1.86693396 2.38947792
O 0.04520341 -8.95472757 0.99081104
Pu -6.84428122 -8.34146981 -0.11807532
O -7.42292567 -0.58186814 -6.76393434
O 2.84565416 -3.90867997 1.27583117
Pu 6.54625876 -2.67892323 -7.42274948
O -4.37961251 -8.95217403 -4.79968676
O -0.37751546 -2.19375130 -1.29700793
Pu 6.06199700 -7.14669656 -2.84207389
O 7.09402917 -7.32121860 0.50888789
O -7.96937304 -5.01951734 3.19686438
Pu 3.21896824 4.71978529 -0.57349923
O -10.21165011 -1.70426731 -3.77729022
O -6.22657322 -3.73949128 1.03062933
Pu 0.26522877 -7.72446645 -7.16281210
O 6.48355012 -1.57459083 0.67574732
O -5.68503988 1.32347481 5.10873046
Pu -5.56689715 -4.12466728 8.06151292
O -2.42052278 -6.41768075 0.14394902
O 1.71792197 2.42643369 -8.75704555
Pu 6.25938021 3.20982097 1.74985252
O -6.97984837 -1.74749102 7.57782463
O 5.00576763 7.55296459 3.24345068
Pu -3.51807630 1.39965057 0.65401113
O 1.29044725 5.24788968 -0.84339221
O 0.41608665 -3.43292317 0.84692495
Pu 8.65403407 0.51324924 3.62568326
O 4.97854127 2.82782048 3.99968030
O 0.04736750 6.67565386 -4.99334352
Pu -4.60456375 -5.76359322 -0.28596432
O 1.37788841 -3.65393199 3.38259532
O -6.75214514 4.40629326 -1.73718914
Pu -1.88860092 -0.17255427 8.86017281
O -6.15228611 -1.50521732 3.73444437
O 9.09192642 0.23357060 5.49533753
Pu 2.21770056 -0.91704797 -7.17072550
O 6.57156777 0.22862299 -5.54620210
O 2.46503509 -9.94016597 3.65583687
Pu 8.21325762 2.12961106 -4.74623660
O -3.65793080 -6.38731948 1.95132207
O -0.39799508 5.94068201 -9.51277268
Pu 3.05433994 7.33848012 6.95498718
O 6.30032396 0.96462266 8.40751543
O -1.59913558 -1.06907042 1.96587394
Pu 8.96961621 -4.22843612 -2.89193403
O -2.51363651 5.57101563 -3.05093710
O -2.33335734 0.50839815 -2.21420896
Pu -5.28289441 4.96993587 6.12934774
O -6.42268866 -5.52042153 6.97529553
O 1.40622514 7.55099941 1.30203284
Pu 5.77217530 -4.37534147 -4.67452931
O -0.34144918 -1.72226777 5.98235350
O 0.08488629 -0.61026880 8.99319080
Pu 4.28294673 7.00873895 -3.32272907
O -2.86966774 2.95414797 7.69382126
O -7.14660734 -5.76641092 -0.94372020
Pu 2.14483610 0.66888923 -9.75587990
O 1.52508948 -1.24579151 1.03972490
O -7.50126978 0.92881225 -3.21647498
Pu -0.55668355 -2.62556461 -3.79850105
O 6.95317629 8.13246881 6.10243753
O 9.40212821 4.70516603 3.02331997
Pu 8.09601274 4.81010492 4.61808252
O 11.87642393 -1.36320991 -0.39414196
O -2.25640817 1.49244093 10.02555881
Pu 2.33695735 -5.89076706 1.56355339
O -0.16556900 -6.57479477 -0.79852080
O -10.56207805 -0.14919227 6.57998898
Pu -7.34282154 3.52545364 7.96449230
O 8.52880601 5.97631478 7.16683761
O 2.08158335 1.14347096 -2.16254361
Pu 10.82403019 -0.96689405 -2.06205742
O 1.31233677 -2.14329088 -3.39446606
O -4.28075632 -0.44089997 1.27451044
Pu -7.43921031 -1.42271846 -1.82595282
O -5.02945316 -1.61255418 -3.68797767
O -2.34955204 2.97750425 -6.58190728
Pu -5.94586800 -1.43795411 1.55364476
O 4.66766461 -6.16439760 -1.63832781
O 8.96108123 3.72724082 6.05302532
Pu -9.75279576 0.11506527 -3.26425226
O 9.70648163 -5.08633123 -1.28784643
O 3.50104358 -1.19072065 -1.44426218
Pu -7.09972332 7.08499945 2.98348694
O -1.85336670 8.92435240 -3.57240345
O 1.91622639 -8.31926934 -2.44721582
Pu -2.58929486 -4.07503446 9.80101317
O -3.58815286 9.14944458 4.83105361
O 4.83973109 8.28566429 -1.58703541
Pu -8.87772252 -3.26677571 -4.08571341
O 11.63653296 2.70032938 0.83456128
O -9.70538656 1.58152470 4.63834856
Pu 3.84573407 3.86425746 -8.68282635
O -0.64484736 -5.42201530 7.72448512
O -4.18456696 -7.12358148 4.29702917
Pu -8.92065525 4.15165147 -3.81328201
O 3.09492572 -7.31855206 0.10310765
O 9.15572921 -2.23115103 2.74646152
Pu 1.49102537 -2.22487464 -11.63118914
O -4.07829697 7.32166551 -4.25693642
O -8.74978599 -3.72777774 6.07471220
Pu -1.63944703 3.24000426 9.30169097
O -4.55091078 -8.37794696 0.60207948
O -1.72927568 -1.77932122 -8.45778913
Pu -2.54011684 4.87511869 -0.98980691
O -1.83436534 10.37997280 3.58869099
O 4.29076073 4.05956862 -4.46507140
Pu -4.08028402 1.75574346 6.65136175
O -4.26417601 -3.97943645 -1.19419697
O -1.11101141 -0.59201942 -3.61021037
Pu -1.54157880 -7.12704045 2.26747556
O -1.54262867 -4.56882192 4.96406719
O -7.75703093 -0.67186934 5.40920408
Pu -0.44767110 2.39593423 6.01649616
O 0.95641818 -3.66412689 6.11686637
O 4.75478224 -7.68763479 2.37090627
Pu 3.17585018 -1.00178607 -3.87294092
O -7.52119204 3.63915578 5.47777794
O -5.47006335 -1.54087881 -0.67096324
Pu 7.40452478 0.65797490 6.73218933
O -4.47199773 5.88751533 1.67267244
O 5.08927529 -6.15638575 -4.37401988
Pu -7.62222777 1.27853785 4.50996033
O 1.35671870 1.19251822 4.22495654
O 6.60703792 -0.67746807 -8.11036497
Pu -9.00005884 -1.75790300 6.66546966
O -9.27028155 5.05978830 -1.85604740
O 8.52180253 -3.61842463 0.48945622
Pu 2.52772566 -6.01728979 -2.08604303
O 11.29235060 -3.15028685 2.19982981
O 7.05514126 -2.50548409 -5.43707848
Pu -1.38265796 8.13442376 -5.41681844
O 7.45085109 -2.80483198 -2.38051635
O -9.91494570 2.10853205 -2.76520718
Pu -4.06421371 7.37369237 4.29399450
O -1.19984682 7.57648408 6.03190708
O -0.21693953 -3.14510672 -10.16028162
Pu -5.78060379 -1.35226826 -5.78076391
O 3.46981860 -0.27800179 -5.69083058
O -3.41160097 -0.07777815 7.36239455
Pu -3.24812658 -9.97414336 0.38817349
O -3.66346189 6.73478072 -8.19970816
O -8.16632949 -3.15862079 -2.17647993
Pu -4.45179905 -8.44493450 -2.85417700
O 1.72469794 -4.50121289 -1.05167609
O -2.12695898 7.13143236 0.19305258
Pu -6.48476382 4.05166546 2.68771972
O -0.32777158 -8.32256245 -2.99977319
O -5.80078133 6.93795767 4.96607406
Pu 8.39062931 -5.67661053 0.47036217
O 4.49803155 2.85115779 -7.03692582
O -3.55210164 9.94858497 7.12055832
Pu -0.34936588 1.14507726 -2.51123414
O -2.61022912 -3.19907452 3.01290773
O 3.59393505 -1.24126887 5.96694216
Pu 5.65583647 8.59164160 4.71622851
O -8.03590792 5.23035266 3.28383751
O -4.03807560 8.82649114 -1.14677388
Pu -2.68372189 4.21201820 2.89334103
O 1.85817542 -7.75243507 2.46201984
O -8.02180771 -1.20327543 1.15699614
Pu -7.61986012 1.18708044 -5.82626807
O 6.80274062 3.70577063 -4.66158873
O -6.38246860 -9.29345004 1.74638139
Pu -7.63377005 -5.11508081 1.25059148
O -2.72682445 0.03438499 -10.00015906
O 7.47701612 -5.48546976 -3.94300875
Pu -0.97407236 -10.16871031 -3.12724798
O 2.51369910 5.57068230 7.55795397
O 0.31569410 0.03022978 -7.27702652
Pu 0.38427213 -8.39074448 -0.89881245
O 4.03917254 -3.49396320 -1.88291225
O 6.37835194 -4.63072773 5.18368513
Pu 0.83489674 5.86885202 -2.98767909
O 9.51252417 -5.90110700 2.17142052
O 0.47412889 1.19181175 -0.39227747
Pu -3.04082514 10.90816037 5.48635372
O -1.58754628 -8.44461656 -7.53450764
O -2.79465391 -2.97771514 -2.98966043
Pu 6.28808998 7.70510565 -0.43721066
O 3.61776558 0.58063554 -8.04335931
O -3.01527817 8.40923613 -6.41523289
Pu -0.45364134 -0.78855826 0.11983317
O -2.58884224 -9.04087592 2.13395341
O -0.85778604 -7.28675213 4.16110053
Pu 5.82295713 4.62229787 -6.08489354
O -1.19724415 3.35314633 -1.09506747
O -5.30225902 4.77925561 4.21982053
Pu -0.95020582 -4.69394411 -0.10364762
O 7.40270151 2.19044543 -6.69640124
O -2.37979248 6.61039462 3.74224466
Pu 4.96745441 -1.13611725 4.57572708
O -4.38746853 -3.23870167 -5.49297666
O -7.75409112 3.61702146 0.20058205
Pu -4.39814131 6.96439436 -6.39735356
O 3.55145265 3.12349812 7.43356986
O 0.78256135 6.72283503 6.04207275
Pu -7.33939786 -4.95842592 5.28768099
O 4.23332685 -8.38377669 -3.53397818
O -8.07842674 -1.07637318 -4.05931594
Pu 1.40637166 -1.55006775 7.34783665
O -5.35422094 5.27252941 -6.95306946
O 1.41593379 -6.27389140 -3.82950710
Pu -1.76319874 4.50691610 -4.85487177
O -8.75225059 -7.77604206 -0.59176597
O 3.06099104 5.08163314 -2.74460213
Pu -6.52222492 2.02718224 -1.59153614
O 7.89630755 7.98701998 -1.49488826
O -3.36455325 -4.15835311 7.77062530
Pu -5.02302443 -8.00033112 2.60257686
O -1.48144207 -9.61557967 -0.69781992
O -0.24296186 -3.07155133 8.35236848
Pu 10.70302383 -1.42560829 1.10031916
O 5.47379229 0.42658157 5.90464401
O -4.69952981 -9.69053680 -1.30772317
Pu 3.17330408 -4.67089129 -7.67422486
O -5.08219164 3.16178172 -3.17836809
O 5.26126638 -9.07260283 -1.40809104
Pu -5.01863832 -3.86357848 -3.61607785
O 1.70949214 -4.57748233 -8.90130303
O 8.82950551 -3.69162699 4.66603000
Pu 4.77779131 4.12060908 5.67826745
O 0.23151896 4.54106541 -4.34630017
O 3.48660879 -6.25020199 4.97538817
Pu -3.96882155 -5.19301924 3.87144597
O 7.12884097 2.58181320 -0.12880144
O 2.86417970 -9.70981691 -0.13164094
Pu 0.01242241 -2.93932335 -8.12400785
O -1.13193408 10.39262611 5.81711548
O -7.13118020 5.67278517 1.37255758
Pu 8.35917989 1.18764297 -0.96616827
O -0.90735095 -4.78569414 10.70032130
O 9.62686993 -0.48651556 -0.45931781
Pu 0.54597175 -4.57988974 9.43055535
O -3.05476640 -5.49035414 -8.34422266
O -3.77943451 -1.17621762 5.62059924
Pu -0.92069137 0.58615738 3.22036454
O -1.52710590 2.52161510 -4.28566917
O 2.02264897 -4.04669205 8.34447979
Pu 10.08027465 -4.20996982 3.31995148
O -1.04094212 4.44111269 4.40577483
O 4.96401995 6.40081349 5.95395798
Pu -3.55772064 -4.34052183 -6.86473129
O 2.74988935 5.02118905 -6.31149927
O 0.82296111 -10.36481481 -2.10927603
Pu -1.21713267 -1.02422972 -10.60999609
O -1.89473654 -7.10323668 -5.81137260
O 9.55860388 3.10030838 -0.67311777
