420
ML-kMC step 1000
Pu 1.53458898 5.76067700 4.23395430
O 2.68988848 0.42794879 7.59242693
O 4.86180286 -2.79637921 -3.78083458
Pu 2.59061928 3.26381365 -5.22432284
O -5.50082112 8.31191734 2.09864523
O 10.11963564 -2.60351368 -3.24325653
Pu -8.01002634 5.73532829 -0.43774936
O 3.02241019 -11.90877230 -1.89728049
O -7.09371600 -3.45905200 -4.81284000
Pu -4.16344799 3.58671582 -7.48722942
O 1.13994773 -6.68745225 6.04366200
O 5.01754274 7.32127057 8.49386198
Pu 5.57982354 -5.95130415 3.87568488
O 2.26390426 2.60082258 0.31342401
O 5.63814616 6.24862950 -4.87651368
Pu -1.28660431 5.54075246 6.43265019
O -5.96368864 0.65642288 -5.02782440
O -4.22486690 1.14395630 -1.44985964
Pu -5.35118688 5.32196344 -3.48778810
O 8.08389014 2.63478290 -2.64492610
O 4.20023100 -0.75159500 2.65110100
Pu 1.67480900 3.92463200 8.19814000
O -4.53685241 1.28637920 -8.13267615
O -6.13100579 7.39289195 -1.02243811
Pu 0.21846828 -5.45684363 -10.73780961
O 2.01440440 7.54277793 -2.46053942
O -5.79535607 2.74026733 7.54033280
Pu 5.84471923 -3.24105201 -1.10180603
O -1.29941882 2.90034370 1.86546382
O -0.54514681 3.44021479 7.82047991
Pu -0.61158152 6.92013042 1.40809966
O 4.72415306 -5.57552291 1.92430686
O 0.78368400 4.17249600 6.06850100
Pu -3.57905026 -0.52536848 -8.27533112
O 1.15508985 -6.29594891 -6.17933405
O 0.72995124 8.72273898 -4.85955194
Pu 0.29764600 3.11177300 0.67131700
O -1.98949056 4.05440685 -8.84654934
O 4.71787958 -3.30942265 3.92118768
Pu 0.14705985 4.38021708 -9.44447118
O -6.66954815 5.16191833 7.57635855
O 0.57235945 -1.72281964 -9.38851863
Pu -3.55545189 -7.78035840 -6.90941396
O -4.76151556 -6.18397086 -6.63601050
O -5.83105467 -5.53890165 4.24814478
Pu -0.85907900 -6.29023000 5.95933500
O 6.18656536 2.59142499 6.32510409
O 0.99206178 -11.62309680 0.90019143
Pu -2.68052645 8.20238358 7.65429471
O -2.12514089 2.24814752 4.94098315
O -9.66144786 6.06065893 0.80751940
Pu 5.66244171 0.91220507 -7.77692443
O 3.52040210 -6.54241527 7.92135531
O 0.39144858 7.44352585 3.38248588
Pu 4.54513130 0.78243197 7.82602380
O -4.34495288 -5.85990418 -3.48894764
O -9.54203157 -5.29026281 0.30770375
Pu 7.41452473 -3.00544916 1.88724017
O 1.41436700 3.67548300 3.14296400
O -1.02450949 7.71902056 -2.32218211
Pu 0.16500783 9.27452083 -2.49691809
O 5.11932990 8.71191880 1.30241788
O -6.12821017 -6.65324337 1.26426767
Pu -1.76936574 7.27835661 -8.99020979
O 4.05742996 6.87622866 0.05575911
O 4.28459803 1.75227018 -9.88899432
Pu 2.33166170 -8.25623889 4.41262371
O -4.74779600 2.55029200 2.45949500
O 1.67030200 9.59199524 -0.82678278
Pu 2.78715251 -5.24933906 6.64536849
O 2.59724687 -1.31174344 -10.73080031
O 0.35113754 -7.17172578 -9.13073805
Pu -8.92405709 5.10686540 5.05376827
O 9.61134783 0.69399810 1.94657293
O 4.84859726 -3.05936418 -8.42666668
Pu -0.75201405 -6.53548874 -4.11039442
O -8.42361151 6.99369508 5.06295166
O -7.39911971 5.36304215 -4.52950575
Pu 5.08544365 6.10115246 1.94576908
O 4.03300920 4.34661442 1.39890758
O -8.67362284 2.84576768 -5.25732951
Pu 11.98056301 3.08593869 -1.37731865
O 6.64051897 4.75486803 6.76890825
O -2.17838165 6.20687006 8.13994394
Pu 3.77692714 0.92098057 -0.92154318
O 0.30608154 -1.67099373 -5.32654888
O -5.68962743 -3.23714472 6.36878605
Pu -1.00927100 0.89982800 -5.82001000
O 4.20049717 5.28774321 3.71165572
O 3.29765325 7.72554851 -5.26252958
Pu -11.05196141 2.25706983 6.26897655
O -10.13353552 4.03159957 6.49898616
O 13.01106922 4.14972261 -2.77776121
Pu -9.84762877 4.11658099 1.33049826
O 5.49128482 5.93604522 -1.68224375
O -3.29104208 4.45668675 5.61728609
Pu -8.97597173 0.39963186 0.50633568
O -10.29701253 4.40616604 3.34604616
O 1.02379523 -8.89565384 -5.96498392
Pu -9.84173319 -6.16281978 -1.57031644
O -2.42088608 -0.13357507 -0.10028968
O 2.40602389 4.90484019 -9.65923570
Pu -1.68223017 -3.04498561 6.84740261
O 4.60457961 1.86659421 1.79325739
O -3.77655164 6.57678817 6.62139113
Pu -4.73436661 7.79409309 0.30257068
O -3.61574707 0.55498250 -5.73023667
O 6.69994064 4.67657753 3.35781468
Pu -0.90014289 9.15838079 4.74578732
O 0.69894100 4.45239200 9.80417200
O 8.26663623 2.69530026 2.71895998
Pu -5.83786113 -1.21646772 5.75640041
O 0.02543077 0.37181001 -10.60567937
O 4.82677200 3.13047930 -1.11202144
Pu 6.86831211 -0.93739660 -3.90886000
O 7.18569800 -5.72539300 -1.40454900
O -2.14945840 6.05789271 -6.00191044
Pu 1.88899807 -10.06289851 1.67519336
O 6.33649934 5.33039616 0.71372360
O 11.17554141 0.89456557 -2.30192105
Pu 9.79001889 3.59608100 1.41510472
O 7.49557635 -4.73429878 2.67759915
O -1.28325295 1.24583147 7.77997612
Pu -3.32497914 -1.59217478 -1.83364469
O -0.44064157 7.64969184 -7.37056347
O -0.40352920 -1.77506475 -12.50151856
Pu 1.66174511 7.10957252 -6.22574822
O -10.13607826 -4.99162121 -3.22713733
O -0.28883899 -12.51199445 -2.12198352
Pu 2.18780391 -2.66532246 -1.49399279
O -7.36886578 0.32431706 -0.92051425
O -4.68820870 -4.54569992 9.99242464
Pu 3.25202735 -9.98020676 -2.25857184
O 6.48276176 -4.53318218 -6.66195849
O -0.13510259 -4.83573656 -2.32795795
Pu 3.06372115 8.55987045 0.06083808
O 8.49170990 0.13535768 -3.64887336
O 3.76270912 -6.46639596 -6.75774880
Pu 2.53869667 -7.58238375 -5.17518795
O -4.29207045 4.02284017 -5.38749796
O -9.49971130 -0.34723217 -1.45074700
Pu -3.25323407 7.79697444 -2.54807788
O -1.02157005 -5.06492886 2.11722250
O 5.14502294 5.38430034 -8.22829302
Pu 5.04402480 -8.21372390 0.31175429
O 1.24921751 1.67539827 -4.60761322
O -3.33805088 3.35828173 0.52720759
Pu -4.20782100 1.05777600 -3.88237400
O 1.53019818 -4.57136336 -11.93600189
O -6.00887455 -7.66894467 -1.84199579
Pu 7.61665693 -3.04544414 5.97151124
O -4.55043987 -1.81241321 -7.15295647
O 6.77064066 -1.48716145 6.82930119
Pu 6.66462355 6.75883109 7.53115282
O -0.79633267 4.95175045 1.14776103
O -8.91032813 2.18440861 8.20062473
Pu 8.29737776 4.18134135 8.02269974
O -2.58361838 -8.98306691 -3.23910000
O -2.54399815 -2.13939543 9.53166764
Pu 6.02281981 4.07595306 -2.57827955
O -9.71343964 2.14138084 0.94343700
O -1.05099266 -4.15629275 -6.55530993
Pu -0.53900098 -3.14271278 3.07444386
O 7.40717065 -0.88039397 4.58292224
O -4.18666272 5.89914509 -1.55386842
Pu 2.86100400 -2.17255500 2.52606500
O 3.90872031 8.97887557 5.80805053
O 5.22471880 0.24072763 -2.59051254
Pu 3.05640600 2.14955400 3.17947400
O 2.43726885 -3.09004346 -7.15789867
O 8.52909151 3.25565810 9.72534148
Pu 1.21141839 -12.19627600 -0.98059219
O -7.52865991 1.74634139 2.56340128
O 0.11045465 -9.00645572 1.25560358
Pu -6.85648760 -8.40708854 -0.02634082
O -7.60995743 -0.70169312 -6.56255132
O 2.81675519 -3.87116218 1.65837138
Pu 6.87889325 -2.92207605 -7.76897894
O -4.21422675 -9.59147599 -4.75597965
O -0.63544049 -2.27564107 -1.19351793
Pu 5.97249455 -7.17068536 -2.94384033
O 7.50031101 -7.56169825 0.21503482
O -8.28182155 -5.17906176 3.42612911
Pu 3.36694866 4.64197849 -0.59856696
O -10.38161574 -1.81524011 -3.75209017
O -6.16756138 -3.74736164 1.08269545
Pu 0.14008849 -7.85291537 -7.29900381
O 6.50731610 -1.60757312 0.55779239
O -5.77722931 1.35094372 5.18626701
Pu -5.43449009 -4.18052588 8.06460399
O -2.43910005 -6.40387286 0.14589350
O 1.63189284 2.52870802 -9.24054825
Pu 6.22853200 3.22405100 1.69602500
O -7.36816430 -2.01312537 7.66638095
O 4.85923792 7.41178805 3.33067167
Pu -3.56566754 1.45383080 0.63859863
O 1.26364719 5.16139869 -0.88072957
O 0.70282058 -3.37008840 0.91323423
Pu 8.93297541 0.49141980 3.91841753
O 5.22584728 2.64977372 4.11476235
O 0.11187943 6.67025143 -4.98719028
Pu -4.54505100 -5.68957800 -0.33778600
O 1.39470100 -3.64499900 3.37879900
O -6.82187263 4.46791758 -1.76666676
Pu -1.96568073 -0.14880507 9.22169025
O -5.79425170 -1.48874239 3.78384593
O 8.94800600 -0.09632400 5.80855100
Pu 2.23104265 -0.89557747 -7.13583029
O 6.81269012 0.18795499 -5.51529974
O 2.46293989 -10.00391163 3.67343502
Pu 8.14107853 2.06579070 -5.01089341
O -3.75937659 -6.42244440 2.01134810
O -0.60937045 6.14736343 -10.05280799
Pu 3.25729726 7.51195471 7.19351151
O 6.16383290 0.91938137 8.87056016
O -1.60058356 -1.05258525 1.80015714
Pu 8.91017962 -4.29085543 -2.89092285
O -2.66538419 5.46207736 -2.89658428
O -2.44292600 0.30818522 -2.05342911
Pu -5.20821200 4.98525272 6.16554780
O -6.33409828 -5.63664046 7.19651838
O 1.40737989 7.52826638 1.22912059
Pu 5.95601890 -4.29754256 -4.79691768
O -0.44739346 -1.70792579 6.00493196
O -0.06831067 -0.61415496 9.09159278
Pu 4.54187834 7.36162475 -3.54123356
O -2.83067504 2.91666810 7.84387428
O -7.64395105 -6.28254183 -0.79737875
Pu 2.23707292 0.75246082 -10.04607538
O 1.80704032 -1.31098421 0.88120559
O -7.66955863 1.24109547 -2.96275685
Pu -0.52986759 -2.72689856 -3.71514395
O 6.83483418 8.17994637 6.11815616
O 9.51909591 4.62181935 3.12353265
Pu 8.15180850 4.80435447 4.60311849
O 12.19158986 -1.47998354 -0.47474903
O -2.41648707 1.58253277 10.31638677
Pu 2.38075573 -5.90856778 1.64670860
O -0.16170400 -6.57155800 -0.79662600
O -10.72638269 0.02946612 6.45010841
Pu -7.56039964 3.55531186 8.15669013
O 8.57840253 6.16447079 7.45094125
O 2.09724368 1.16258705 -2.36700394
Pu 10.98368953 -1.12844708 -2.16898992
O 1.34679204 -2.18514623 -3.40645307
O -4.31980389 -0.37316044 1.30628682
Pu -7.47342262 -1.40819073 -1.85960623
O -4.98767019 -1.52812017 -3.80681793
O -2.42815752 3.00206834 -6.64534077
Pu -6.00868200 -1.41283100 1.45033000
O 4.51786282 -6.18986260 -1.73766006
O 8.86959760 3.65837571 6.03714553
Pu -9.81307210 0.10674523 -3.27284225
O 9.83649972 -5.38443700 -1.42438035
O 3.50263516 -1.19001844 -1.43307171
Pu -7.33984402 7.26946366 3.04372102
O -1.94988293 9.33867875 -3.56053909
O 1.91641900 -8.45955800 -2.36429300
Pu -2.84046827 -3.97325199 10.18804661
O -3.57070299 9.18887940 4.78561674
O 4.94108915 8.47827002 -1.56718871
Pu -9.01063988 -3.35666678 -4.12823279
O 11.74858340 2.94007549 0.65243510
O -9.55272258 1.74484066 5.08526574
Pu 3.81717440 3.94867225 -8.75352187
O -0.89866116 -5.63635039 7.99051166
O -4.30663864 -7.27972360 4.36453217
Pu -9.08960100 4.17503616 -3.82632385
O 3.12205950 -7.38510944 0.17397312
O 9.29862239 -2.29391810 2.68696563
Pu 1.24472184 -2.47780742 -11.51181687
O -4.07246223 7.57672240 -4.28177590
O -8.72591881 -3.83245683 6.26049818
Pu -1.65677589 3.29469339 9.50595083
O -4.65600136 -8.51511902 0.33304104
O -2.01302152 -2.29968092 -8.79623239
Pu -2.51713711 4.86550062 -0.97858578
O -1.84408542 10.61605901 3.84612256
O 4.43714273 4.02260238 -4.39811701
Pu -4.09471748 1.69852539 6.63105969
O -4.49483332 -3.79578655 -1.25399971
O -1.31815490 -0.81574990 -3.73004384
Pu -1.59411836 -7.49989418 2.28570120
O -1.52314282 -4.50515294 5.04800825
O -7.62052562 -0.56751603 5.47944253
Pu -0.36718019 2.27656189 5.74384889
O 1.05901404 -3.65500657 6.28148337
O 5.12680489 -7.74119998 2.31340946
Pu 3.11454936 -1.14392984 -3.83269842
O -7.55389644 3.71024320 5.50841394
O -5.39744109 -1.49983565 -0.61789195
Pu 7.33985329 0.77349925 6.78110600
O -4.57323001 6.04893827 1.70758038
O 4.96889855 -6.13860032 -4.41015323
Pu -7.62109727 1.54309188 4.69843438
O 1.38150694 1.27829571 4.36709795
O 6.81909703 -0.78252191 -8.28826366
Pu -8.96933483 -1.80721373 6.58810587
O -9.63685995 5.27780102 -2.21656941
O 8.49286465 -3.75376412 0.50748806
Pu 2.38288221 -5.90076048 -2.19920933
O 11.47769778 -2.94770267 2.25571047
O 7.07402375 -2.59526900 -5.43465394
Pu -1.49955666 8.21880772 -5.53855858
O 7.53407256 -2.80178448 -2.59324148
O -10.24531304 2.09531961 -3.01774839
Pu -4.06400987 7.32846676 4.28063519
O -1.20896017 7.94364593 6.22962863
O -0.23161201 -3.53663236 -10.45257051
Pu -5.78362361 -1.42791984 -5.74182535
O 3.53165852 -0.18340334 -5.64129325
O -3.41746921 -0.05501068 7.34429379
Pu -3.40572786 -10.13547194 0.14571611
O -3.63323847 7.15920513 -8.28243974
O -8.16229703 -3.16421254 -2.18000250
Pu -4.51739110 -8.58710104 -2.94327868
O 1.48155771 -4.37535246 -0.86146739
O -2.22520526 7.16033692 0.09243871
Pu -6.44457022 4.02203199 2.59933934
O -0.38833320 -8.44807566 -3.13870642
O -5.80205078 6.89540187 4.95130646
Pu 8.73284594 -5.98378219 0.62846751
O 4.45682303 2.73612160 -6.94968010
O -3.55852198 10.01261199 7.13758919
Pu -0.49764473 0.83317004 -2.48984587
O -2.67962357 -3.02480397 3.10660450
O 3.46297058 -1.24677035 6.03892270
Pu 5.52673032 8.56979531 4.71112671
O -8.01597493 5.20710059 3.30395279
O -4.29418559 8.91941282 -1.27773588
Pu -2.56835100 4.15679900 2.99260200
O 1.92784431 -7.87957457 2.29364364
O -8.13967025 -1.27727135 1.13749606
Pu -7.61796556 1.13243963 -5.90226195
O 6.97530766 3.73528702 -4.79376940
O -6.51727534 -9.34920955 1.91171313
Pu -7.82667600 -5.02776751 1.38832707
O -2.78937259 -0.04261362 -10.01163534
O 7.44309970 -5.39536873 -3.66709989
Pu -1.00690126 -10.44302774 -3.17609687
O 2.67189087 5.77628353 7.90053925
O 0.36526773 -0.18102144 -7.35079819
Pu 0.38238938 -8.39519214 -0.90024923
O 4.05691580 -3.50092322 -1.87999640
O 6.44888346 -4.71802324 5.27228309
Pu 0.86725733 5.91041175 -2.98286704
O 9.61988585 -5.96092615 2.52057364
O 0.55836320 1.32521065 -0.47844733
Pu -3.15869742 11.18927820 5.52231836
O -1.71812770 -8.74773955 -7.82132982
O -2.81529642 -3.00637402 -3.01839936
Pu 6.36877518 7.80139593 -0.42000128
O 3.73159061 0.47733367 -8.07952905
O -2.94489072 8.72234526 -6.78223807
Pu -0.41358378 -0.80204808 0.10275171
O -2.81061159 -9.11765947 2.07114911
O -0.81328310 -7.69549647 4.32160540
Pu 5.89226413 4.85444959 -6.18291853
O -1.19668300 3.34169000 -1.09282000
O -5.28958401 4.72226751 4.16661678
Pu -0.87077900 -4.69125300 -0.08285600
O 7.42993754 2.37419961 -6.77080478
O -2.44885532 6.47139966 3.68824965
Pu 4.97869708 -1.12005852 4.56464696
O -4.29073894 -3.10939761 -5.42664131
O -8.02542139 3.70389721 0.07433015
Pu -4.53014374 7.25794660 -6.54157844
O 3.60078138 3.23072134 7.37250036
O 0.84023939 6.70587009 6.07856051
Pu -7.41644484 -4.98541655 5.37547783
O 3.98176684 -8.39611475 -3.68811297
O -8.09021348 -1.13890331 -3.94592987
Pu 1.38787140 -1.56038235 7.35912341
O -5.43455562 5.56060948 -6.90130647
O 1.36024159 -6.28505922 -3.85947684
Pu -1.83419498 4.49880454 -4.88983613
O -8.81806423 -8.43351128 -0.53427542
O 2.80910264 5.10492743 -2.71817586
Pu -6.73569600 2.45404600 -1.62288200
O 8.04532005 8.25662925 -1.45263573
O -3.31170322 -4.22139474 7.85834813
Pu -5.14362990 -8.21362479 2.63514013
O -1.69031698 -9.94773360 -0.97257970
O -0.06876472 -3.05112037 8.63130356
Pu 10.95024144 -1.47611942 1.11630169
O 5.50598700 0.23549900 6.09529200
O -5.15369081 -9.84122893 -1.51256488
Pu 3.34036484 -4.72358191 -7.89327094
O -5.09820602 3.23618569 -3.40083705
O 5.07785373 -9.02814430 -1.42384569
Pu -5.03074626 -3.94214435 -3.58527718
O 1.50629929 -4.43661319 -8.90486416
O 8.94313994 -3.86847585 4.75641570
Pu 4.87847094 4.05739231 5.79271706
O 0.22300220 4.54164154 -4.34403773
O 3.54893075 -6.39371715 5.12757953
Pu -3.96367018 -5.25250447 3.92357796
O 7.08013833 2.50956703 -0.17626004
O 3.11380818 -9.93372533 0.13929091
Pu -0.00878988 -3.16762255 -8.19728772
O -1.10545049 10.86155302 5.88589574
O -7.17162700 5.63452181 1.54089215
Pu 8.36262423 1.26440577 -0.97254165
O -1.14259911 -4.93109025 10.85190785
O 9.80497680 -0.40900676 -0.45980647
Pu 0.37596880 -4.72050843 9.62027733
O -2.83529007 -5.61163816 -8.32492474
O -3.85500249 -1.29687886 5.60787984
Pu -0.90344830 0.54388978 3.26123818
O -1.55374640 2.47981884 -4.28234827
O 2.01828218 -4.21474908 8.56776205
Pu 10.19112042 -4.27764361 3.34495172
O -0.34944700 5.17919100 4.05217900
O 4.99147282 6.44324183 6.15862432
Pu -3.56188213 -4.32617777 -6.94918117
O 3.00959189 5.09156745 -6.41838254
O 0.60427752 -10.28599286 -2.12827925
Pu -1.30168785 -1.09957328 -10.77880276
O -1.89718174 -7.28171005 -5.72470255
O 9.84259540 3.00509269 -0.81120754
