420
ML-kMC step 4000
Pu 1.45249186 5.61244316 4.28661259
O 2.28913757 0.19411212 7.58484738
O 4.75583747 -2.77146570 -3.74037118
Pu 2.48522127 3.41453444 -5.10084779
O -5.28827952 7.93030620 2.41457589
O 9.80105779 -2.38921529 -3.11012394
Pu -7.83168304 5.64965500 -0.40390125
O 3.02165831 -11.63604531 -1.90049173
O -6.85778263 -3.08994749 -4.86404849
Pu -4.19955281 3.59493934 -7.36170872
O 1.05364307 -6.65759476 5.68881564
O 4.79395581 7.21884310 8.15483366
Pu 5.40192815 -5.73776342 3.73983002
O 2.22861217 2.58283783 0.34119146
O 5.74057404 6.11409131 -4.61245707
Pu -1.41453629 5.37354304 6.17215881
O -5.97673325 0.64393586 -4.92555042
O -4.22259346 1.16094689 -1.39641687
Pu -5.50260740 4.98972877 -3.55069239
O 7.80579829 2.59673003 -2.69952753
O 3.93572337 -0.70690927 2.85765167
Pu 1.67044913 3.89285682 8.00778223
O -4.27965570 1.63472214 -8.29683913
O -6.07707637 7.23577115 -0.94901125
Pu 0.55228922 -5.32609058 -10.23444075
O 1.99174119 7.49591130 -2.39986884
O -5.55154456 2.79916875 7.56340765
Pu 5.94431391 -3.30203652 -1.18206662
O -1.38239696 2.90406428 1.89790548
O -0.18877163 3.58224775 7.53244691
Pu -0.59876608 6.92809475 1.49376901
O 4.56223978 -5.53025658 1.97119411
O 0.78759953 4.05305323 5.76142469
Pu -3.52519841 -0.31013968 -8.17195215
O 1.11092818 -6.24790989 -6.05965084
O 0.52762253 8.90865268 -4.74076694
Pu 0.29764600 3.11177300 0.67131700
O -1.77029722 4.07812382 -8.49615759
O 4.72922001 -3.20310137 3.97712745
Pu 0.24263396 3.97279649 -9.24531870
O -6.60958912 5.41402748 7.60500850
O 0.85455750 -1.37709779 -9.41027932
Pu -3.52606759 -7.84100064 -6.57205115
O -4.48239424 -5.83259875 -6.13284652
O -5.73963332 -5.47842312 4.19497868
Pu -0.80833745 -6.22527955 5.87003610
O 6.08537263 2.38811356 6.52325696
O 0.85441306 -11.61426649 0.89982439
Pu -2.91822400 8.06876274 7.53553946
O -2.08275800 2.15851184 4.91427868
O -9.48024106 6.06152300 0.75251213
Pu 5.56046419 1.09959164 -7.80849428
O 3.35449821 -6.18985456 7.85835042
O 0.25871818 7.17574821 3.52778751
Pu 4.58975308 0.84597860 7.62193189
O -3.98629344 -5.89472832 -3.46224898
O -9.23112960 -4.86083006 0.30049385
Pu 7.35372750 -2.62511529 1.77714345
O 1.65628651 3.93731655 3.18270292
O -0.86647157 7.18333750 -2.37440130
Pu 0.19126907 9.03703725 -2.63781001
O 4.83197694 8.30721288 0.91797549
O -5.95287245 -6.62509616 1.20526175
Pu -1.67764714 6.56400034 -8.19057861
O 3.99840268 6.57619062 -0.14046099
O 4.39432210 1.90605857 -9.54210242
Pu 2.25591846 -7.96604867 4.29746482
O -4.81007363 2.52745681 2.37562520
O 1.66757690 9.42635043 -0.81414765
Pu 2.58554802 -4.97276859 6.54801625
O 2.98322244 -1.18093543 -10.71371425
O 0.59148485 -6.98042374 -8.97012403
Pu -9.01697533 5.09288456 5.05253372
O 9.23976788 0.30096177 1.68667055
O 4.47595526 -3.03615958 -7.98893236
Pu -0.69446760 -6.59133369 -3.89661984
O -8.11717776 6.87711974 4.84004697
O -7.28875925 5.12961940 -4.37643317
Pu 5.07344649 5.94075031 2.04770981
O 4.03640749 4.34523366 1.39953429
O -8.42976211 2.84254846 -5.24763895
Pu 11.46479576 2.85241461 -1.48182120
O 6.50294057 4.70730792 6.61248611
O -2.30678852 6.16275022 8.07947032
Pu 3.55248018 1.11263663 -0.83074647
O 0.00916095 -1.65716353 -5.37056829
O -5.89266313 -3.38668197 6.01855037
Pu -0.97192524 0.92978292 -5.83121250
O 3.93209933 5.40823681 3.81701124
O 2.93830240 7.29625646 -4.76701609
Pu -10.41896550 1.92015292 6.25587837
O -9.88073400 3.77839106 6.56493550
O 12.20235018 3.75385522 -3.00132220
Pu -9.87165104 4.00911975 1.25156825
O 5.50234352 5.97487161 -1.69488318
O -3.29514792 4.46223594 5.55614434
Pu -9.11841589 0.37973417 0.64882143
O -10.44131982 4.28860881 3.18840582
O 1.37944689 -8.89487379 -5.78110338
Pu -9.20149646 -5.89560086 -1.48045365
O -2.27411546 -0.20211788 -0.21272383
O 2.16456336 4.79276356 -9.48312183
Pu -1.64573642 -3.06266082 6.85878686
O 4.63482554 1.84945153 1.83362717
O -3.63821475 6.55993689 6.24067515
Pu -4.63104630 7.41725825 0.34762519
O -3.65796666 0.54128488 -5.79609380
O 6.68902990 4.68269072 3.33252798
Pu -0.59016567 8.81962557 4.41978883
O 0.69866096 4.12463072 9.66721010
O 7.99115485 2.63708503 2.48510615
Pu -5.81584242 -1.10603337 5.52349923
O 0.05736943 0.40650541 -10.67405354
O 4.76961732 3.26517050 -1.04128299
Pu 6.86090009 -1.01745905 -3.83670714
O 6.70927669 -5.20653192 -1.45696940
O -2.26380939 6.02879530 -6.28003537
Pu 1.63039455 -9.88467035 1.66279440
O 6.34760655 5.31688375 0.73216922
O 10.41947909 1.14948645 -2.21070631
Pu 9.59702617 3.45622255 1.37053435
O 7.36855307 -4.62929198 2.63736686
O -1.14934336 1.27519525 7.30507666
Pu -3.30986606 -1.44287789 -1.84467019
O -0.25891144 7.62540951 -7.05248131
O -0.41057370 -1.72320453 -12.15180113
Pu 1.62956485 7.12478869 -6.18191140
O -9.52663431 -4.88792428 -3.21540720
O -0.64485706 -11.87173544 -2.11287226
Pu 2.19677539 -2.62553492 -1.38841002
O -7.31137761 0.42263978 -0.80537620
O -4.55931674 -4.59057180 9.67404896
Pu 3.43901446 -9.72683871 -2.15996986
O 6.33478423 -4.21997274 -6.49189310
O -0.16200004 -4.79160919 -2.32180588
Pu 3.09702019 8.36361331 0.03681735
O 8.35032962 0.14843356 -3.31690162
O 3.63043983 -6.20771688 -6.48938153
Pu 2.68059946 -7.58410118 -4.89353733
O -4.32985640 3.98078525 -5.41701483
O -9.52942592 -0.20987137 -1.27484853
Pu -3.18601652 7.63228333 -2.53485048
O -0.88107049 -5.20589463 1.97385425
O 5.06076085 5.16814421 -7.77093626
Pu 4.82694726 -7.86654901 0.41171348
O 1.04215219 1.81616876 -4.54586295
O -3.23316518 3.55902691 0.45390772
Pu -4.37127100 0.97783165 -3.84584742
O 1.50060776 -4.25388630 -11.60443019
O -5.63612283 -7.52659826 -1.45805516
Pu 7.38893962 -2.99696872 5.74438318
O -4.52659331 -1.65627774 -7.20045782
O 6.66007423 -1.47894512 6.77115909
Pu 6.58726980 6.68852551 7.30894855
O -0.75794353 5.02289520 1.04994568
O -8.33597982 1.86903928 7.37996167
Pu 7.86617596 3.73579710 7.73073884
O -2.51533855 -8.77102920 -3.29370998
O -2.33505320 -2.21766519 9.07447883
Pu 6.14139351 4.10721468 -2.52518580
O -10.17544139 2.05625072 0.76182827
O -1.10344702 -4.04582213 -6.58639715
Pu -0.57982397 -3.17427036 2.84852460
O 7.31364822 -0.87632021 4.45790413
O -4.16074000 5.86659795 -1.52146932
Pu 2.62271504 -2.35136167 2.55026690
O 3.69195393 8.80263496 5.47225211
O 5.21422171 0.07717454 -2.88668934
Pu 3.07370224 2.16242019 3.16214555
O 2.42513843 -2.97029660 -7.05934902
O 8.11596204 2.89526318 9.47939539
Pu 1.24171589 -11.94429361 -1.14779173
O -7.73763477 2.01723509 2.56623717
O -0.02848710 -8.86646397 0.97696630
Pu -6.86369907 -8.32035027 -0.13434138
O -7.40188579 -0.44040213 -6.79079549
O 3.01396284 -3.91444723 1.32555681
Pu 6.61261974 -2.62913055 -7.49602273
O -4.45993323 -8.82542237 -4.89498384
O -0.16866359 -2.23281871 -1.20484855
Pu 5.88801126 -7.15106856 -2.67474143
O 6.83443340 -7.10289561 0.39337941
O -8.15761342 -5.01470393 3.13470303
Pu 3.21896824 4.71978529 -0.57349923
O -10.21102747 -1.62338522 -3.74217978
O -6.13918493 -3.55947441 0.96581678
Pu 0.26344408 -7.73752948 -7.15057849
O 6.28584167 -1.63724638 0.49724197
O -5.72349741 1.11853127 5.18896975
Pu -5.56966540 -4.03683993 8.00500040
O -2.40504481 -6.40470118 0.19561313
O 1.53305228 2.47352296 -8.78607188
Pu 6.05616299 3.27546640 1.67475033
O -7.00943038 -1.78131473 7.35959962
O 4.93414440 7.48879553 3.24970655
Pu -3.39076073 1.41686594 0.52417653
O 1.29289901 5.24566473 -0.84726044
O 0.28431598 -3.51203178 0.96708246
Pu 8.41070720 0.61316284 3.53914325
O 4.97854127 2.82782048 3.99968030
O -0.11939563 6.72128328 -4.84863389
Pu -4.60994638 -5.74482801 -0.29465970
O 1.38659947 -3.67670483 3.46284116
O -6.75214514 4.40629326 -1.73718914
Pu -1.85726236 -0.13294466 8.76589745
O -6.25131552 -1.55959159 3.61530914
O 9.04470008 0.24474438 5.45945948
Pu 2.21905163 -0.91385971 -7.17772170
O 6.53577535 0.26108057 -5.30630758
O 2.40298569 -9.72015985 3.53194240
Pu 8.08751716 2.09844921 -4.64527393
O -3.49785181 -6.44378646 2.11496858
O -0.17888734 5.95332996 -9.22265849
Pu 3.04974579 7.27974098 6.94465210
O 6.28181919 0.76200513 8.54373843
O -1.58284026 -1.07550837 2.01809010
Pu 8.77484753 -4.17198412 -2.89121292
O -2.50713810 5.56900317 -3.05418640
O -2.28112598 0.52109053 -2.16531605
Pu -5.09290400 5.00231425 6.07342932
O -6.35640201 -5.56033437 7.12015667
O 1.41149536 7.46079880 1.25249091
Pu 5.69326344 -4.25590316 -4.54780944
O -0.33829621 -1.73516526 6.02176804
O 0.05109952 -0.65783843 8.94634264
Pu 4.28186954 7.06544727 -3.29703762
O -2.88062843 3.02849690 7.74254830
O -6.91692571 -5.80669252 -0.80649104
Pu 2.03756971 0.64345638 -9.74274624
O 1.34023635 -1.09418742 1.21227207
O -7.44080676 0.91567742 -3.19439356
Pu -0.55668355 -2.62556461 -3.79850105
O 6.97736373 7.97943152 5.91831958
O 9.32670074 4.74752074 3.02049785
Pu 8.09754057 4.78507322 4.60950789
O 11.71645160 -1.33994271 -0.37018528
O -2.28148183 1.47609192 9.94140732
Pu 2.33188754 -5.72929009 1.62691350
O -0.16267144 -6.56931523 -0.80696891
O -10.62228947 -0.37205236 6.57313371
Pu -7.30849990 3.53454101 7.81858576
O 8.35105527 5.90613946 7.06643878
O 2.01703246 1.15114295 -2.17662303
Pu 10.60676036 -0.90275802 -2.16282772
O 1.34506163 -2.26505286 -3.42743606
O -4.26029678 -0.33096641 1.31679388
Pu -7.46141880 -1.41671417 -1.82550603
O -5.07284753 -1.52081254 -3.62548720
O -2.34955204 2.97750425 -6.58190728
Pu -5.94052501 -1.44098553 1.57999876
O 4.53860225 -6.03060119 -1.57234262
O 8.90841098 3.41478026 5.82803666
Pu -9.80520610 0.33564170 -3.26282514
O 9.51737584 -5.00903966 -1.20679717
O 3.50773947 -1.21698407 -1.35293489
Pu -6.93983950 7.08775881 3.09755500
O -1.92735095 8.96780467 -3.57768725
O 2.01680944 -8.31396043 -2.30232050
Pu -2.52624537 -4.04466515 9.67550252
O -3.65520027 9.14363082 4.73584156
O 4.82844972 8.27017780 -1.58438306
Pu -8.86020364 -3.26188034 -4.10447194
O 11.37529825 2.76462166 0.76760215
O -9.50410974 1.51714646 4.53974659
Pu 3.78768507 3.88308670 -8.67290972
O -0.63362883 -5.39586775 7.72250335
O -4.22608154 -7.25384154 4.29147165
Pu -8.73998544 4.06928197 -3.57071584
O 3.04046959 -7.18580371 0.15194322
O 9.10125538 -2.29514014 2.75329766
Pu 1.52562255 -2.16913427 -11.60728481
O -4.13141598 7.32713592 -4.26731296
O -8.63840404 -3.75828549 6.07253592
Pu -1.50020391 3.27651203 9.16257021
O -4.52588951 -8.31431347 0.63904783
O -1.80730057 -1.79966380 -8.50517625
Pu -2.55336478 4.86691667 -1.02654850
O -1.79151968 10.15902747 3.50963925
O 4.50954020 4.18214559 -4.40046335
Pu -4.08885196 1.67483780 6.79812713
O -4.48256068 -3.84638015 -1.26358652
O -0.86390588 -0.62276268 -3.53641996
Pu -1.55872521 -7.10676109 1.96338758
O -1.54694790 -4.57579303 4.91230065
O -7.90162190 -0.66134445 5.30974253
Pu -0.37031178 2.38277089 5.94829696
O 1.09770970 -3.67728244 6.15605789
O 4.71245456 -7.75234974 2.37101487
Pu 3.28202669 -0.97489319 -3.91168842
O -7.44212231 3.41199476 5.31944791
O -5.60911670 -1.48241961 -0.80183325
Pu 7.39571301 0.61860546 6.71207114
O -4.36798512 5.63458252 1.69080579
O 5.12146317 -6.13407072 -4.32466326
Pu -7.61896748 1.19554189 4.32779128
O 1.36901226 1.20141605 4.20800183
O 6.61777612 -0.71943819 -8.12731066
Pu -9.01777289 -1.74781577 6.44249662
O -9.12381311 5.04980773 -1.82709369
O 8.46322891 -3.55865774 0.53371440
Pu 2.47251560 -6.07472109 -1.89056264
O 11.19228238 -3.13581964 2.17811564
O 6.86950446 -2.43177481 -5.34633891
Pu -1.39987989 8.31277831 -5.46053811
O 7.28681788 -2.79648001 -2.45547401
O -9.75909174 2.38725663 -2.80377934
Pu -3.97115617 7.23836973 4.23168858
O -1.27537270 7.68942422 5.99465325
O -0.25585484 -3.21868290 -10.09935290
Pu -5.85798006 -1.36410871 -5.77514300
O 3.41170779 -0.34972900 -5.76907974
O -3.49175109 -0.20588285 7.37842286
Pu -3.16600265 -9.89321036 0.43761842
O -3.61858080 6.66695875 -8.19131159
O -8.30407216 -3.15880101 -2.15933480
Pu -4.36046153 -8.31799417 -2.94317248
O 1.72301309 -4.48158316 -1.05825541
O -2.12940494 7.13190684 0.19066975
Pu -6.48660815 4.05585833 2.70510226
O -0.31496855 -8.25487395 -2.89493595
O -5.80041782 6.94795554 4.96031222
Pu 8.35209847 -5.76416749 0.62364942
O 4.42326430 2.65189550 -6.91067453
O -3.73716678 9.84168236 7.09567267
Pu -0.32475617 1.30941000 -2.56514128
O -2.51959367 -3.38362834 2.92872549
O 3.56969701 -1.25462815 5.94679262
Pu 5.58109560 8.55614814 4.71106652
O -7.99531213 4.96321193 3.44794201
O -3.91980685 8.71376994 -1.14704238
Pu -2.73204272 4.29143543 2.80580382
O 1.84860734 -7.58800140 2.40570069
O -8.01872764 -1.17052494 1.11296381
Pu -7.58780799 1.20313671 -5.80541724
O 6.82237382 3.71953153 -4.64060691
O -6.26221351 -9.24844307 1.63060939
Pu -7.56491762 -5.02903216 1.25159802
O -2.82854899 0.12856800 -10.05234296
O 7.42127133 -5.48636462 -3.92853724
Pu -0.92999302 -10.09987132 -3.05986962
O 2.56249775 5.46111116 7.39895222
O 0.32341182 -0.01275328 -7.20077071
Pu 0.38427213 -8.39074448 -0.89881245
O 4.05530968 -3.50718153 -1.87920231
O 6.37364673 -4.61874312 5.15420077
Pu 0.91100025 5.92832077 -2.89322526
O 9.46314767 -5.93118476 2.25450181
O 0.43150353 1.02571675 -0.21819928
Pu -3.03386304 10.85870604 5.32727814
O -1.72496238 -8.51832088 -7.49439156
O -2.74834584 -2.92478323 -2.94601706
Pu 6.26010497 7.52930344 -0.44088481
O 3.29286764 0.51563621 -8.02719529
O -3.05404032 8.45588806 -6.45888919
Pu -0.44268408 -0.76233583 0.11774484
O -2.58562099 -9.03263634 2.11961628
O -0.79494613 -7.24179281 3.99379800
Pu 5.82323654 4.62150948 -6.08421756
O -1.19366257 3.35637661 -1.09150487
O -5.03764486 4.91394796 4.14294958
Pu -0.95495552 -4.71837456 -0.09138920
O 7.31084261 2.17917227 -6.68450048
O -2.32142082 6.50950745 3.52155705
Pu 5.02926607 -1.13330348 4.53802001
O -4.36829124 -3.16174492 -5.49184428
O -7.83541884 3.67126229 0.19769958
Pu -4.46112059 6.80911837 -6.32685716
O 3.40010577 3.00642530 7.37850474
O 0.99508720 6.77040893 6.12811989
Pu -7.26804308 -4.92818812 5.30209892
O 4.17507553 -8.24745389 -3.52711928
O -8.15433332 -1.11505851 -3.99892554
Pu 1.38722920 -1.55311737 7.35947646
O -5.62935887 5.28469163 -6.97587916
O 1.46388922 -6.28936241 -3.71270390
Pu -1.77746808 4.54563850 -4.85436250
O -8.68808701 -7.73863407 -0.70481176
O 2.79072819 5.14021994 -2.88338734
Pu -6.42514968 2.12469625 -1.40616727
O 7.84353489 7.93369943 -1.48489848
O -3.35252205 -4.01456297 7.66649335
Pu -4.92079792 -7.90748526 2.63641627
O -1.53285111 -9.52451279 -0.63925243
O -0.29236254 -2.99142170 8.29154666
Pu 10.60626746 -1.51950496 1.28955895
O 5.49852731 0.45667225 5.88287150
O -4.45212572 -9.72239247 -1.43595949
Pu 3.17218929 -4.64791935 -7.70573793
O -5.08219164 3.16178172 -3.17836809
O 5.28214968 -8.86766360 -1.46177686
Pu -5.04588388 -3.92723967 -3.63626417
O 1.68249155 -4.49261326 -8.92048545
O 9.04777042 -3.67154846 4.90997726
Pu 4.75073247 4.16422858 5.57407470
O 0.22507766 4.58756359 -4.37769742
O 3.46774941 -6.12992030 4.96247300
Pu -3.82172186 -5.19260278 3.84442868
O 7.02747632 2.58279806 -0.14272485
O 2.83258428 -9.59172771 -0.05475375
Pu -0.03386703 -3.07415576 -7.94179093
O -1.05910581 10.54088122 5.77465954
O -7.12719236 5.66091120 1.49849905
Pu 8.20061041 1.17309155 -0.95075826
O -0.89861045 -4.64590551 10.62268325
O 9.59677821 -0.53650685 -0.37465390
Pu 0.54194869 -4.54526144 9.35937977
O -3.07980663 -5.46739955 -8.30769294
O -3.74399511 -1.18754282 5.45849661
Pu -0.90973411 0.61237981 3.21827622
O -1.52039198 2.50570952 -4.27424736
O 2.01652868 -3.60373163 8.32426184
Pu 9.99783619 -4.19345712 3.24785346
O -1.04094212 4.44111269 4.40577483
O 4.72094089 6.31152126 6.05767517
Pu -3.42281124 -4.33774884 -6.81161904
O 2.73325674 5.10567657 -6.27197319
O 0.81953145 -10.17249848 -2.05663803
Pu -1.23157545 -0.99172596 -10.47203942
O -1.76582429 -6.85818406 -5.65372218
O 9.69247036 3.04495194 -0.62007704
