420
ML-kMC step 3000
Pu 1.73770940 5.48028523 4.29366789
O 2.55807702 0.00854792 7.83666471
O 4.88665849 -2.80846746 -3.88145717
Pu 2.77649982 3.04210853 -4.88845829
O -5.30246130 7.68898988 2.14600404
O 9.50587065 -2.41072980 -3.18535009
Pu -7.53063775 5.70898590 -0.48998869
O 2.96307444 -11.47303733 -1.88570000
O -6.78981543 -3.37337833 -4.54180095
Pu -3.69392324 3.48845605 -7.74950550
O 0.85377411 -7.00596142 6.17911926
O 4.75592877 6.80445033 8.06377344
Pu 5.36506294 -5.53393406 3.66530687
O 2.41221016 2.28066086 1.01215926
O 5.46320807 6.16299570 -4.51886117
Pu -1.52969568 5.22255332 5.89494058
O -5.62484622 0.52909889 -5.13593067
O -4.29084773 1.20889685 -1.64312594
Pu -5.09680086 5.11698482 -3.15137911
O 7.22959428 2.61560356 -2.58993216
O 3.63653145 -1.17154970 3.27690889
Pu 1.59652323 3.82434233 7.91388764
O -4.37003766 1.34340769 -7.96149974
O -6.21128416 7.15739726 -0.71125941
Pu 0.42449487 -5.42046330 -9.86078040
O 1.82085387 7.37755083 -2.47397663
O -5.48474325 2.29276686 7.19638320
Pu 5.76395592 -3.36514518 -0.99626345
O -1.33286971 2.95296702 2.06405945
O -0.58885033 3.38663270 7.48171072
Pu -0.57847809 6.96588902 1.52152760
O 4.48598134 -5.63228089 1.79939820
O 1.46114800 3.75085418 5.82157410
Pu -3.39975189 -0.38380722 -8.04338613
O 0.83956835 -6.07132473 -5.73565324
O 0.50016549 8.55876336 -4.93921479
Pu 0.08995418 3.19640298 0.48960892
O -1.98923791 3.68059664 -8.59770436
O 4.56424872 -3.34123122 3.94179607
Pu -0.11212216 3.03063850 -8.76354802
O -6.18820372 4.90690794 7.54732908
O 0.49197590 -1.29155452 -9.08230879
Pu -3.30187490 -7.58103969 -5.98941314
O -4.54602664 -5.74009102 -6.14118547
O -5.76778732 -5.69397166 4.20661762
Pu -0.83825803 -6.13237025 5.93980399
O 6.13335275 2.79061345 6.45803474
O 1.15285079 -10.70152642 0.64895624
Pu -2.32123197 7.90402355 7.42346382
O -2.30719125 2.03876241 4.79585074
O -8.96896292 5.88174174 0.85571788
Pu 5.33562713 0.99996336 -7.05978921
O 3.30753795 -6.71315295 7.69872442
O 0.32090257 6.91079216 3.42696297
Pu 4.26355518 1.09471109 7.51741210
O -3.75554003 -5.20852913 -3.07311043
O -9.04021705 -4.56515316 0.52282969
Pu 7.36339296 -2.70433690 2.07907360
O 1.86374950 4.22702030 2.84116707
O -0.97393181 6.77714582 -2.20740022
Pu 0.38530666 8.72958395 -2.50249206
O 4.60621498 8.49832956 1.17826059
O -6.00795746 -6.59146540 1.52418731
Pu -1.46976187 6.71765214 -8.34145934
O 4.05973999 6.59504602 0.03884035
O 3.95641848 2.23184212 -9.80746303
Pu 2.11121546 -7.89562553 4.83300644
O -4.36268238 2.74803928 2.31681807
O 1.21165195 9.26770400 -0.86657409
Pu 2.67381167 -5.11753881 6.58033272
O 2.74530164 -1.43731482 -9.31408587
O 0.56241643 -6.95500920 -8.73126483
Pu -8.75405535 4.74336959 4.85931586
O 9.26546212 0.66563988 1.59234776
O 4.95750997 -3.22259365 -8.12038816
Pu -0.67896578 -6.18887721 -3.65026409
O -8.22060804 6.73103926 4.35333265
O -6.96982140 4.97851130 -4.14770558
Pu 4.83506677 6.04813024 1.97305688
O 4.05069243 4.42822230 1.36118938
O -8.05452654 2.90536766 -5.04894755
Pu 11.39176325 2.74079607 -1.44537158
O 6.89518430 4.79018731 6.06919477
O -1.86436204 6.01678311 7.96778959
Pu 3.67537931 1.12613346 -0.85700985
O 0.64316487 -1.90174080 -5.53172253
O -5.75306236 -3.18639998 5.59107993
Pu -0.90034145 0.70647477 -5.90235592
O 3.91830279 5.48006071 3.68213238
O 2.82901549 7.31567683 -4.97443602
Pu -10.16602735 1.69973019 6.10269056
O -9.03055906 3.52403398 6.56301334
O 11.59019062 3.55174914 -3.21377992
Pu -9.30811240 3.88558529 1.39409760
O 5.38781268 5.93057338 -1.56020001
O -3.41001791 4.11852985 5.29241528
Pu -8.81376577 0.51647201 0.44518260
O -10.05194342 4.05540491 3.17095589
O 1.37329202 -8.65263935 -5.88553061
Pu -9.05956107 -5.85770896 -0.96597848
O -1.89977963 -0.67226602 -0.32781820
O 1.64953389 4.44299879 -7.94656470
Pu -1.51184210 -3.13581654 6.81397541
O 4.71931510 1.67253594 1.70484125
O -3.30641112 6.36842904 6.10822341
Pu -4.45867746 7.57313003 0.30032076
O -3.31922831 0.16213113 -5.46410177
O 6.31022467 4.91299590 3.15717778
Pu -0.96648391 8.24300790 4.26147046
O 0.21386330 3.72598814 9.53447258
O 7.84691536 2.53414566 2.69323536
Pu -5.60524962 -1.09037075 5.63142151
O -0.04455908 0.98030508 -10.43385993
O 4.78643523 2.95403779 -1.05264177
Pu 6.87084975 -1.08946755 -3.67253416
O 6.62582900 -5.10326135 -1.42445069
O -2.16631694 6.07626905 -5.96498471
Pu 1.94757317 -9.32391438 1.83199079
O 6.58435215 5.22725648 0.76152595
O 10.69895452 1.02046589 -2.23031014
Pu 9.16327069 3.54331098 1.03566073
O 7.67099786 -4.45420505 3.01552264
O -1.19258083 1.31147319 6.97948664
Pu -3.37129691 -1.65482105 -1.95578674
O -0.13092757 7.30243375 -6.98874854
O 0.00713326 -1.80168163 -11.77053133
Pu 1.48226906 6.31212201 -5.98502658
O -9.23558142 -5.15974918 -2.97085143
O -0.58000104 -11.79464464 -2.43170492
Pu 2.37914317 -2.67971608 -1.46791825
O -6.95356935 0.43966571 -0.77347841
O -4.61238071 -4.05017068 9.65935922
Pu 3.39878126 -9.50219571 -2.27100944
O 6.64044365 -4.34321570 -6.27764853
O 0.00982237 -4.69414931 -2.43921627
Pu 2.99983545 8.31958006 0.04902450
O 8.13586222 0.64041917 -3.25409075
O 3.51603550 -6.20853227 -6.47119571
Pu 2.55948985 -7.41352735 -4.88796777
O -4.13586255 4.39442341 -4.87151147
O -8.91059874 -0.48199206 -1.27014467
Pu -3.03597336 7.75864298 -2.48644592
O -0.68220348 -5.26196861 2.22778698
O 5.11416245 5.13436601 -7.84349183
Pu 4.79893204 -8.08502450 0.22218528
O 1.23868558 1.86492827 -4.86493803
O -3.52770415 3.25438323 -0.25439582
Pu -4.34457380 1.21649478 -3.85953064
O 1.70440873 -4.51595487 -10.93668515
O -5.85199903 -7.31141268 -1.57217622
Pu 7.12684845 -3.06800529 5.96379069
O -4.48085202 -1.79792561 -7.23745297
O 6.21684259 -1.46179962 6.61717281
Pu 6.54311087 6.45258700 7.17983471
O -1.26564580 5.08730840 0.98342267
O -8.09176805 1.26875115 6.92174285
Pu 8.13976616 3.97494889 7.69137090
O -2.87565378 -8.99790287 -2.84643090
O -2.11281623 -2.02275285 9.12816993
Pu 5.87855419 4.16906582 -2.76868789
O -9.77562779 2.18400459 0.67758342
O -1.68993167 -3.48719187 -6.63683935
Pu -0.64688111 -3.21442674 3.48230763
O 7.14467087 -1.68503399 4.31903657
O -4.11494981 5.86682055 -1.57977467
Pu 2.44004548 -2.52504800 2.42861243
O 3.55850990 8.91381877 5.67697366
O 4.68318417 0.20721543 -2.95712456
Pu 3.03951432 2.41749107 2.95005886
O 2.51667503 -3.08078474 -6.72204855
O 8.25428329 2.13181003 8.15705567
Pu 1.16195626 -11.73084285 -1.10493163
O -7.34040927 1.94327773 2.32730814
O 0.50439266 -8.04856684 0.92899238
Pu -6.66365500 -8.13586027 0.15678206
O -7.26078985 -0.89793592 -6.65198717
O 2.89174329 -4.04648747 0.89018078
Pu 6.59286952 -2.51670076 -7.33247009
O -4.51431845 -8.68975379 -4.92857342
O -0.84752938 -2.92930287 -0.93112184
Pu 5.85359873 -6.96501665 -2.72779120
O 6.69737735 -7.01036455 -0.08661404
O -8.28254695 -4.87850668 3.31148241
Pu 3.46064664 4.62300681 -0.62689636
O -10.01068762 -1.71545922 -4.05726226
O -5.71665136 -3.95843503 1.69616705
Pu 0.07275150 -7.64460506 -6.93466482
O 6.38729335 -2.08368119 0.57122912
O -5.48272721 1.02106719 5.01299494
Pu -5.14450801 -3.82360767 7.77422164
O -2.44560172 -6.49696849 -0.01581951
O 1.63833060 2.22033242 -8.72378252
Pu 6.20274584 3.18649120 1.61672741
O -6.58470839 -1.89149864 7.44243166
O 4.76167840 7.45593556 3.29427827
Pu -3.29963877 1.27017602 -0.00703309
O 1.64810831 4.29476412 -1.13446473
O 0.09079904 -3.40777313 1.09110484
Pu 8.33172561 0.63503892 3.35604444
O 5.05379699 2.62783606 4.17411371
O -0.28792847 6.39773175 -4.48002955
Pu -4.42658426 -5.80433542 0.03417885
O 1.32976940 -3.90304942 3.31935990
O -6.35489577 4.51493624 -1.69637306
Pu -1.76121456 -0.23743560 8.38279946
O -5.93597571 -1.18528365 3.38975879
O 8.79271919 0.59100058 5.32264033
Pu 2.25269677 -0.83814729 -7.04136932
O 6.49878079 0.36561493 -5.60836438
O 2.33581080 -9.65409178 3.90033751
Pu 7.87170863 2.21855742 -4.75761447
O -3.73238937 -6.22698990 2.12487590
O -0.45812479 5.35334573 -9.22237930
Pu 3.05629525 7.10714653 6.95285352
O 6.00551546 0.96836472 8.37957968
O -1.43089598 -1.01109685 2.14868454
Pu 8.57366128 -4.11272848 -2.71432787
O -2.51851075 5.77547137 -3.14719966
O -2.15236115 0.67976223 -2.49578461
Pu -5.03380750 4.89287227 5.91364687
O -5.88081126 -5.47247487 6.87487868
O 1.37510445 7.52275588 0.85422386
Pu 5.70355646 -4.42418113 -4.59373597
O -0.23641269 -2.00332470 5.90631116
O 0.14869024 -0.70532320 8.31292236
Pu 4.17058709 6.91857880 -3.26086903
O -2.99724342 3.53877030 7.34201870
O -6.83721413 -5.85812216 -0.54259787
Pu 2.32624294 0.62157604 -9.61644168
O 1.80677057 -1.35920496 0.46004026
O -7.47795346 1.33272332 -3.31288350
Pu -0.47636199 -2.62031437 -4.00013837
O 6.76649544 7.59327799 5.59007416
O 9.22150104 4.34011054 2.82005689
Pu 7.78456231 4.22918762 4.32749988
O 11.04083873 -1.61324092 -0.39014471
O -2.26411807 1.33714659 9.43331785
Pu 2.19722522 -5.84181097 1.59959641
O -0.31764904 -6.60636581 -0.63183072
O -10.27511652 -0.17357824 6.41211628
Pu -7.21261226 3.22481492 7.43176660
O 8.31822217 5.88160711 7.95251842
O 2.08608104 1.08184705 -2.51381764
Pu 10.73724378 -1.05726961 -2.30652663
O 1.49724366 -2.28585336 -3.26277186
O -4.18938906 -0.25030965 1.64344861
Pu -7.09919785 -1.51341061 -1.84610788
O -5.15442808 -1.44121607 -3.39973051
O -2.09295175 2.62975899 -6.71086179
Pu -5.93046407 -1.36013410 1.37897285
O 4.50975067 -6.13809723 -1.61824622
O 8.39272820 2.97129540 5.65634542
Pu -9.38430488 0.09861784 -3.10247649
O 9.41089111 -5.22086192 -1.30231585
O 3.60902087 -1.17680572 -1.33561999
Pu -7.04971790 6.90893084 2.73026935
O -1.65926926 8.97072729 -3.35169278
O 1.99251200 -7.78729209 -2.06916251
Pu -2.67926071 -3.77469370 9.94294554
O -3.23018867 8.48304137 4.30174173
O 4.30893189 8.46449276 -1.50334789
Pu -8.78339911 -3.55440132 -4.06325856
O 11.29571802 2.72705475 0.61562606
O -9.03161413 2.09865479 4.60169706
Pu 3.58931517 3.99329313 -8.60483222
O -1.14294784 -5.21763239 7.85811781
O -3.73501475 -7.14084883 4.23687447
Pu -8.46491197 3.78640875 -3.32260811
O 2.78378860 -6.99652529 0.19109317
O 9.01129656 -1.98591466 2.77756796
Pu 1.41066447 -2.48602380 -10.59956472
O -3.71374125 7.07016928 -4.38072618
O -8.72778022 -3.37844971 5.63648955
Pu -1.88846649 3.35449678 8.99277404
O -4.39898385 -7.86547520 0.65185934
O -2.04129565 -1.83547261 -8.53218235
Pu -2.36342177 5.00971476 -1.05672345
O -1.81013586 9.48567403 2.81536130
O 4.44781524 3.88172453 -4.36025528
Pu -3.71546766 1.90423073 6.37953674
O -5.03321180 -3.58851649 -1.56362208
O -1.16317240 -0.87214955 -4.36360619
Pu -1.57599776 -7.14679889 2.13903796
O -1.74995885 -4.53371710 4.95079674
O -7.53189797 -0.57431294 5.65917329
Pu -0.18695106 2.23084384 5.56144832
O 1.22214103 -3.94039110 5.84460175
O 5.45267688 -7.75848195 2.29659765
Pu 3.16119854 -1.15609179 -3.69497723
O -6.94847141 3.50115673 4.89288892
O -5.24397456 -1.46053325 -0.50676483
Pu 7.38945519 0.73194313 6.80840071
O -4.07774225 5.91451812 1.52924047
O 4.87264201 -6.19473008 -4.38488006
Pu -7.33615197 1.19114354 4.62096268
O 1.43837994 1.45299921 4.30067328
O 6.11909255 -0.67502665 -7.85890925
Pu -8.74918853 -1.66893297 6.68181496
O -8.90225527 5.03825701 -1.85583717
O 8.35583644 -3.58954023 0.53851375
Pu 2.45832500 -5.85025317 -1.96923537
O 10.92083994 -2.92721031 2.25933466
O 7.11651415 -2.35075119 -5.31409982
Pu -1.30959298 7.85207380 -5.24016750
O 6.97573992 -2.55626271 -2.33170914
O -9.67884225 2.04843060 -2.55397759
Pu -4.07126996 6.79307317 3.94140064
O -0.99007181 7.33702841 5.95929152
O -0.59534361 -3.20388958 -9.99988561
Pu -5.65488930 -1.58766356 -5.51614359
O 3.18894109 -0.38639149 -5.43290598
O -3.19089479 -0.20001322 7.10541700
Pu -3.40048919 -9.54933204 0.17755007
O -3.35320437 6.23183481 -8.03916942
O -7.91972830 -3.19624244 -2.33640596
Pu -4.85151862 -8.43400555 -2.81444013
O 1.59604810 -4.37218046 -1.10076364
O -2.13438110 6.92896132 0.18415107
Pu -6.42365715 3.80797713 2.69101481
O -0.40287873 -8.07062494 -2.82740535
O -5.82527790 6.76009820 4.73469231
Pu 8.13528657 -5.60205414 0.54377770
O 4.19774185 2.76205452 -6.49500499
O -3.84964503 9.41326405 6.66224813
Pu -0.13148461 0.87248859 -2.71647644
O -2.79431670 -3.42411173 3.27240781
O 3.26192135 -1.11811979 6.07098651
Pu 5.38218648 8.62138319 4.72275785
O -8.03227280 4.83518452 3.06465220
O -3.60112886 8.85723608 -0.99213327
Pu -2.75700869 4.11834464 2.82160789
O 1.82941546 -7.52237673 2.86896249
O -7.78464972 -1.04570487 0.98610352
Pu -7.45765191 1.09526300 -5.83391216
O 6.89236895 3.91623854 -4.51073755
O -6.27789177 -9.11060037 1.89629910
Pu -7.31716283 -5.01824303 1.36326648
O -2.16354667 0.31192691 -9.39559923
O 7.24380631 -5.22228521 -3.51979263
Pu -1.12116613 -9.93483336 -2.93746829
O 2.37180509 5.58142430 8.20139294
O 0.40875034 0.00004845 -7.19286308
Pu 0.42833782 -8.32284917 -1.08650591
O 4.04607970 -3.54963287 -1.81594188
O 6.17981063 -4.78944763 5.32985347
Pu 0.82385637 5.54391451 -2.68925838
O 9.40113680 -5.76763069 2.20514150
O 0.67323263 1.44242024 -0.66299738
Pu -3.22508599 10.32703970 4.77255631
O -1.69321620 -8.37030622 -7.48378403
O -2.45676359 -2.87874775 -3.23173857
Pu 6.11582009 7.58908482 -0.25768769
O 3.57440296 0.37804740 -7.84357331
O -2.94634550 8.41779405 -6.23401125
Pu -0.29531914 -1.51744990 0.35997718
O -2.80335000 -8.75583324 2.07982462
O -0.76684376 -7.46439067 4.23803870
Pu 5.47426747 4.63347041 -5.92928420
O -1.15105820 3.38250609 -1.07027043
O -5.23409365 4.83114902 3.84448822
Pu -0.73927048 -4.73112779 -0.18963464
O 6.63681093 2.56261053 -6.42182805
O -2.21373310 6.28781029 3.84801193
Pu 4.91808874 -0.97619871 4.86747656
O -4.11577422 -3.09819376 -5.37283248
O -7.51467416 3.40657712 -0.00918296
Pu -4.36760431 6.75613495 -6.15308351
O 3.40055853 2.86538671 7.18538175
O 1.37094053 6.56080267 5.91694799
Pu -7.26036749 -4.79196172 5.07577819
O 4.03179182 -8.22230207 -3.80801158
O -7.67623595 -0.99692536 -3.73778491
Pu 1.44066648 -1.50742415 7.07373994
O -4.85086977 4.92979148 -7.06904031
O 1.57485819 -6.31162560 -3.60381438
Pu -1.70992282 4.42876503 -4.98142262
O -8.46924326 -7.90070790 -0.51015024
O 3.01414742 5.27360288 -2.56352051
Pu -6.18566059 2.35830810 -1.33173428
O 7.68312029 7.28062156 -1.31725695
O -3.14645697 -3.82559119 7.55016549
Pu -4.87716058 -8.04529670 2.79353802
O -1.67234004 -9.47312172 -0.91922432
O -0.28732171 -3.27457482 8.30130597
Pu 10.03441729 -1.29410826 1.25128664
O 5.29899941 0.69005488 5.81546103
O -5.12226868 -9.65793640 -0.93907011
Pu 3.47813725 -4.56956159 -7.65796708
O -4.89351261 3.06457767 -3.39371266
O 5.18837892 -8.87518432 -1.47953630
Pu -4.89082329 -3.80873465 -3.73800513
O 1.29639661 -3.99566420 -8.65163209
O 8.92001422 -3.49930745 5.06967464
Pu 4.78875685 4.00861644 5.49444661
O 0.50561139 4.49330090 -4.46069826
O 3.27453482 -6.10678585 4.81302106
Pu -3.95189395 -5.19631626 3.74199150
O 7.26264846 2.49581651 0.03870211
O 2.98425974 -9.37535791 -0.10417260
Pu -0.15923950 -2.77729299 -7.78753836
O -1.58169349 9.66460569 5.85438841
O -6.64800602 5.55197211 1.41708408
Pu 8.19554849 1.38010563 -1.33725729
O -0.87562047 -4.59901432 10.67698789
O 8.56560161 -0.41342421 -0.43946359
Pu 0.74384059 -4.70204938 9.08192576
O -2.38544565 -5.21533475 -8.11236271
O -3.58876107 -1.57769974 5.15964005
Pu -3.00528066 -0.66996171 3.45889474
O -1.25247972 2.49480451 -4.47543417
O 2.46343473 -3.96608290 8.25231899
Pu 9.88435746 -4.26156633 3.32008344
O -0.44601239 4.34994141 4.37667420
O 4.72394057 5.97141177 6.01878412
Pu -3.72942395 -4.01141998 -7.04869032
O 2.96194257 4.97836227 -6.10346104
O 1.05134165 -9.89051445 -2.25493572
Pu -1.24117763 -1.00625159 -10.48243823
O -1.52235721 -7.35155302 -5.21292557
O 9.43408446 2.83897279 -0.91199670
