420
ML-kMC step 2000
Pu 1.72704986 5.53792610 4.27111903
O 2.55730292 0.05383991 7.94826967
O 4.88665849 -2.80846746 -3.88145717
Pu 2.78059601 3.03377764 -4.89158929
O -5.27365695 7.70155242 2.10717062
O 9.63896003 -2.41538970 -3.15249568
Pu -7.64056396 5.70422327 -0.47810069
O 3.15516338 -11.51273572 -1.87471352
O -6.99439207 -3.41368148 -4.59189265
Pu -3.74306937 3.46605258 -7.81169763
O 0.84801306 -6.96544066 6.21311948
O 4.77451133 6.88723477 8.23527836
Pu 5.46593810 -5.58721995 3.66882411
O 1.98350842 2.24296846 1.11063235
O 5.46605570 6.16709919 -4.52012830
Pu -1.52803423 5.22270759 5.88006910
O -5.69547942 0.61392118 -5.21902261
O -4.26598122 1.21467262 -1.64887771
Pu -5.18067576 5.18046327 -3.15977789
O 7.27309924 2.64100992 -2.60320514
O 3.69147679 -1.11597447 3.19395087
Pu 1.52229935 3.87485513 7.99544148
O -4.48330668 1.34605474 -8.09590118
O -6.12812687 7.20017102 -0.78911576
Pu 0.44526654 -5.43685918 -9.86585094
O 2.02572263 7.46651793 -2.60511966
O -5.38317394 2.32798033 7.53896887
Pu 5.76395592 -3.36514518 -0.99626345
O -1.12822454 2.97333444 2.24002278
O -0.55705063 3.37326338 7.47174449
Pu -0.58111251 6.96699721 1.50893014
O 4.51274623 -5.66879637 1.86973887
O 1.12117347 3.89385121 5.93151691
Pu -3.39975189 -0.38380722 -8.04338613
O 0.86998641 -5.90244374 -5.94136199
O 0.52351363 8.71567668 -5.06466549
Pu 0.10767658 3.18799509 0.42798763
O -1.99426241 3.67887817 -8.59256156
O 4.55779352 -3.32518210 3.94521565
Pu -0.15705468 3.21283887 -8.97002892
O -6.30125495 5.05203610 7.51562501
O 0.53636162 -1.34592049 -9.04756733
Pu -3.40434272 -7.67109577 -6.23113776
O -4.47059300 -5.81769730 -6.15402167
O -5.78433858 -5.63907925 4.26886289
Pu -0.85782697 -6.09263448 5.96645866
O 6.25935367 2.62005484 6.21978321
O 1.04427213 -10.75328806 0.68605399
Pu -2.32733186 7.93047074 7.42358014
O -2.34046652 2.01403580 4.77990266
O -8.95102878 5.95125830 1.02611894
Pu 5.38921063 1.02847801 -7.16277563
O 3.33831396 -6.80425381 7.61457053
O 0.43987709 7.16485319 3.34697680
Pu 4.21918457 1.09041767 7.65264059
O -3.76365173 -5.39458336 -3.20246296
O -9.14161763 -4.66426124 0.55413098
Pu 7.36151757 -2.71633139 2.09514914
O 2.11351014 4.12692839 2.87373228
O -0.90030677 7.09084319 -2.15036228
Pu 0.38530666 8.72958395 -2.50249206
O 4.63330438 8.63624074 1.23505022
O -5.96635701 -6.61127734 1.41068729
Pu -1.47231245 6.71601891 -8.34242690
O 4.05688651 6.58132902 -0.02739043
O 3.94328041 2.20979394 -9.65629033
Pu 2.10972453 -7.92019023 4.83921473
O -4.34458451 2.71045851 2.33975050
O 1.43616621 9.33433935 -0.68340273
Pu 2.70155303 -5.20765546 6.70507319
O 2.73194188 -1.48753929 -9.27349586
O 0.53025749 -7.04856545 -8.74997467
Pu -8.72194156 4.85423298 4.80476441
O 9.83076082 0.67024055 1.91274490
O 4.86703156 -3.21691144 -8.25244714
Pu -0.71227907 -6.23393426 -3.74074014
O -8.27519226 6.71418370 4.39315532
O -6.94802475 5.03788630 -4.14869651
Pu 4.83506677 6.04813024 1.97305688
O 4.05069243 4.42822230 1.36118938
O -8.07565847 2.91591280 -5.07720541
Pu 11.51339393 2.74785155 -1.53734405
O 6.89789984 4.76870882 6.12797383
O -1.87703427 6.04021161 7.96934234
Pu 3.68326488 1.12370256 -0.85993759
O 0.65842453 -1.88681385 -5.53060813
O -5.74392946 -3.21938953 5.61917734
Pu -1.09522468 0.89670005 -6.00665467
O 3.91830279 5.48006071 3.68213238
O 2.83852439 7.24423912 -4.74382117
Pu -10.24649127 1.76088327 6.03363842
O -9.17020828 3.56402580 6.50534871
O 11.75664824 3.57396253 -3.23794347
Pu -9.41006966 3.87671582 1.49378889
O 5.37178345 5.90945275 -1.59175869
O -3.44147337 4.12591549 5.36849308
Pu -8.81706555 0.50709253 0.46216298
O -10.19410389 4.11379855 3.24217222
O 1.32035999 -8.85018369 -5.93865180
Pu -9.07798925 -5.86499964 -0.97938419
O -1.90999878 -0.59939807 -0.30106819
O 1.72729131 4.61075683 -8.34179192
Pu -1.55821841 -3.20559743 6.79746662
O 4.48065933 1.63129169 1.75209864
O -3.38514871 6.27555647 6.13819401
Pu -4.37044905 7.35601839 0.38138232
O -3.31473736 0.27369266 -5.58079092
O 6.31488025 4.92673820 3.16872744
Pu -0.93000647 8.37172176 4.31099336
O 0.13390451 3.90671610 9.61970352
O 7.80670351 2.51988497 2.51659558
Pu -5.63852489 -1.11509737 5.61547343
O -0.03020297 0.99647640 -10.51021553
O 4.79400600 2.95253857 -1.07160830
Pu 6.90413732 -1.05713915 -3.69939304
O 6.61783451 -5.09711236 -1.43350059
O -1.90717972 6.19625440 -6.09624142
Pu 2.00481712 -9.55313445 1.87499581
O 6.42299543 5.33706203 0.65576925
O 10.85909343 0.94145280 -2.31404762
Pu 9.14534650 3.56081464 1.05061333
O 7.69935175 -4.46647366 3.02920377
O -1.23753341 1.24525350 6.96003277
Pu -3.33554752 -1.61364481 -1.91042798
O -0.22734699 7.37154456 -7.06237593
O -0.01785607 -1.78276779 -11.96786048
Pu 1.48276884 6.63744535 -6.03284130
O -9.44640011 -5.15519753 -3.02405784
O -0.58831325 -11.77486511 -2.30420772
Pu 2.37914317 -2.67971608 -1.46791825
O -6.93590724 0.63268505 -0.93472222
O -4.73047480 -4.12033320 9.68076329
Pu 3.26260175 -9.59624371 -2.33707097
O 6.66792982 -4.36113977 -6.30375253
O -0.05178840 -4.72238105 -2.48489585
Pu 2.99983545 8.31958006 0.04902450
O 8.26735957 0.52419921 -3.11389255
O 3.82377045 -6.17059855 -6.67482354
Pu 2.75838628 -7.57830135 -5.26886920
O -4.12831819 4.39399326 -4.86727034
O -9.01770285 -0.54970535 -1.24936876
Pu -2.98923798 7.72298529 -2.44073438
O -0.72867026 -5.18168603 2.38085592
O 5.09740208 5.09933387 -7.84856784
Pu 4.79677723 -8.06263255 0.22974073
O 1.26055986 1.87020632 -4.86834094
O -3.45585636 3.30903559 -0.10012940
Pu -4.34504953 1.23035393 -3.86231870
O 1.79909727 -4.37586007 -10.99893903
O -5.75724405 -7.25091990 -1.62262629
Pu 7.28556110 -3.07852902 5.96873851
O -4.50452765 -1.80323510 -7.22546294
O 6.16491795 -1.64241578 6.60330599
Pu 6.61251996 6.46508717 7.19978276
O -1.25291888 5.07464344 0.97946586
O -8.21509936 1.63957576 6.82313554
Pu 8.08026357 3.91568732 7.59881099
O -2.85853621 -8.94517181 -2.94545505
O -2.18774958 -2.11428726 9.21324562
Pu 5.81587931 4.21618923 -2.76593820
O -9.93844691 2.19796715 0.66479347
O -1.42507130 -3.86223852 -6.67792259
Pu -0.54312621 -3.30505299 3.21335314
O 7.05381068 -1.68048803 4.33101914
O -4.12049322 5.96801102 -1.58066972
Pu 2.44004548 -2.52504800 2.42861243
O 3.71127292 8.82251490 5.77169237
O 4.73610291 0.13913966 -2.99636103
Pu 3.04398057 2.43478198 2.99577337
O 2.49286202 -3.11456408 -6.79945176
O 8.26598861 2.20199672 8.47736376
Pu 1.09592992 -11.73127189 -1.19609784
O -7.44227523 1.91783617 2.31385603
O 0.48314163 -8.21182551 0.97988744
Pu -6.61517426 -8.10129700 0.04393159
O -7.18330492 -0.89714075 -6.59476199
O 2.89174329 -4.04648747 0.89018078
Pu 6.58789130 -2.53481513 -7.34480441
O -4.45578374 -8.68256049 -4.90119760
O -0.82057464 -2.92565843 -1.02345096
Pu 5.86026726 -6.95541243 -2.72993925
O 6.65478779 -7.00080328 -0.06757246
O -8.20321312 -4.76571599 3.09323836
Pu 3.47813829 4.71481737 -0.67451620
O -9.99803721 -1.70389446 -3.86459693
O -5.81871948 -3.92749778 1.59556187
Pu 0.00141629 -7.63096496 -6.86603082
O 6.38729335 -2.08368119 0.57122912
O -5.45901770 0.96241177 5.04079156
Pu -5.13419418 -4.02558639 7.70483306
O -2.62759715 -6.69896021 0.03856648
O 1.65874398 2.26100688 -8.82845392
Pu 6.19165643 3.18233167 1.61048502
O -6.58470839 -1.89149864 7.44243166
O 4.80844077 7.42946349 3.34977127
Pu -3.39142899 1.20543950 0.19285611
O 1.58132788 4.54295498 -1.04281728
O 0.12121379 -3.43672831 1.08259964
Pu 8.46508222 0.73439438 3.40128866
O 4.91212887 2.57807683 4.05060941
O -0.28879800 6.39781554 -4.47998853
Pu -4.42838727 -5.77395787 -0.01641738
O 1.32976940 -3.90304942 3.31935990
O -6.38486978 4.54882853 -1.71648551
Pu -1.79876397 -0.42900117 8.40011365
O -6.02954884 -1.32151005 3.49266514
O 8.78184530 0.58524289 5.32638634
Pu 2.25196145 -0.90353224 -7.05909152
O 6.49814525 0.39818072 -5.66410209
O 2.39959713 -9.70843504 4.07479897
Pu 7.87170863 2.21855742 -4.75761447
O -3.76344078 -6.25065475 2.17999615
O -0.36618018 5.18064792 -9.07650601
Pu 3.04468310 7.21391852 7.13675764
O 5.96995253 1.00660595 8.70481138
O -1.63387430 -1.06846366 1.85741536
Pu 8.63843765 -4.13509569 -2.71664289
O -2.56814816 5.76811224 -3.16116261
O -2.15236115 0.67976223 -2.49578461
Pu -5.07733282 4.91145702 5.94217930
O -6.26702153 -5.54830617 7.16975550
O 1.55838370 7.22723992 0.67054931
Pu 5.67329576 -4.38064461 -4.60940799
O -0.28278901 -2.07310559 5.88980236
O 0.11386363 -0.93840468 8.39500624
Pu 4.16476366 6.89619330 -3.23868980
O -2.99618224 3.52548402 7.36948751
O -7.16489586 -5.95923010 -0.56608360
Pu 2.36422885 0.65797180 -9.68440551
O 1.69383803 -1.60867657 0.34629978
O -7.45157080 1.29606754 -3.38253504
Pu -0.47636199 -2.62031437 -4.00013837
O 6.85593936 7.57827791 5.56184096
O 9.14514301 4.33716503 2.87284507
Pu 7.83305800 4.24958880 4.33661840
O 10.98931067 -1.35758535 -0.41790176
O -2.33654154 1.27518768 9.31989038
Pu 2.21771987 -5.84595963 1.62156165
O -0.31764904 -6.60636581 -0.63183072
O -10.19674785 -0.22385365 6.23729571
Pu -7.26661836 3.33654949 7.67470693
O 8.35958763 5.91028401 7.75680242
O 2.19894383 1.08222315 -2.49060650
Pu 10.30154366 -0.90692488 -2.18038575
O 1.49724366 -2.28585336 -3.26277186
O -4.29054551 -0.27489323 1.66177553
Pu -7.17512984 -1.52083654 -1.70408882
O -5.10791280 -1.45986781 -3.38266109
O -2.08073423 2.58434100 -6.76776266
Pu -5.92495063 -1.39561761 1.46473929
O 4.38182223 -6.04938609 -1.71494809
O 8.52643551 3.12515725 5.84396979
Pu -9.45731546 0.14376088 -3.17987683
O 9.57733422 -5.18843660 -1.33201959
O 3.61583291 -1.21649309 -1.34629059
Pu -7.09683550 6.85798440 2.78922224
O -1.59196255 8.85608824 -3.34292245
O 2.00090429 -7.79099283 -2.10661320
Pu -2.76161276 -3.77747772 10.08695995
O -3.23234011 8.48209850 4.30300503
O 4.31177633 8.43424359 -1.53240741
Pu -8.81923311 -3.44596655 -4.00021932
O 11.00420558 2.59379301 0.51552247
O -9.03826608 2.13529003 4.60305124
Pu 3.78732868 3.77651518 -8.44377777
O -1.12345671 -5.22076619 7.85760780
O -4.01601115 -6.99025572 4.27736690
Pu -8.60847262 3.86593822 -3.47030564
O 2.83512341 -7.01519362 0.20992764
O 9.00942116 -1.99790915 2.79364351
Pu 1.42117198 -2.50165697 -10.63664880
O -3.70971004 7.09976673 -4.35125152
O -8.66248646 -3.19242988 5.48429259
Pu -1.90155056 3.33243879 9.01183917
O -4.42294120 -7.98190060 0.62715746
O -2.03768656 -1.84699412 -8.48029626
Pu -2.37526095 4.93076010 -1.09287225
O -1.82709852 9.53425578 2.99745077
O 4.37352651 3.93389496 -4.29829229
Pu -3.91448569 1.73520249 6.43853285
O -4.97676781 -3.59288831 -1.50725820
O -1.15228243 -0.88018864 -4.35645225
Pu -1.55983321 -7.09530031 2.27986353
O -1.59846257 -4.45900127 5.15070703
O -7.53189797 -0.57431294 5.65917329
Pu -0.19650788 2.23929134 5.61234081
O 1.27758205 -4.03518855 6.00613972
O 5.29554775 -7.91464613 2.18402631
Pu 3.16119854 -1.15609179 -3.69497723
O -6.82746911 3.39232656 5.02639687
O -5.36590887 -1.30120444 -0.53758188
Pu 7.27725498 0.76528658 6.83903642
O -4.09492605 5.86331398 1.58552972
O 4.83425640 -6.16248034 -4.38611571
Pu -7.33615197 1.19114354 4.62096268
O 1.28289605 1.24902738 4.35074862
O 6.21512087 -0.68012324 -7.97261004
Pu -8.74918853 -1.66893297 6.68181496
O -9.01002100 5.28865660 -1.92609027
O 8.35396105 -3.60153472 0.55458929
Pu 2.45832500 -5.85025317 -1.96923537
O 10.97274779 -3.03058268 2.41136021
O 7.06840387 -2.29003007 -5.33183931
Pu -1.34803476 7.96360243 -5.27818802
O 7.04920701 -2.49372967 -2.41632812
O -9.86741728 2.04035823 -2.61659543
Pu -4.07342140 6.79213030 3.94266394
O -0.94780628 7.52677925 6.12049613
O -0.30818762 -3.29308320 -9.92665185
Pu -5.67432166 -1.58451212 -5.54155651
O 3.18992325 -0.37927366 -5.43266311
O -3.24229688 -0.25376591 7.11970453
Pu -3.40228584 -9.51834576 0.12284211
O -3.36811965 6.26446797 -8.08072469
O -8.03181566 -3.21722053 -2.18039252
Pu -4.85151862 -8.43400555 -2.81444013
O 1.59604810 -4.37218046 -1.10076364
O -2.11546797 6.94963405 0.18546866
Pu -6.42421848 3.80585444 2.69439063
O -0.40287873 -8.07062494 -2.82740535
O -5.84112056 6.76963892 4.65996194
Pu 8.35098464 -5.78401810 0.59713543
O 4.25634639 2.79756998 -6.59022955
O -3.82085233 9.36952469 6.69321538
Pu -0.14713679 0.90453187 -2.69742286
O -2.90882312 -3.56690289 3.22935364
O 3.27403834 -1.11677286 6.07162173
Pu 5.39447075 8.62206031 4.71881139
O -8.04913320 4.84164229 2.97642212
O -3.88210934 8.95261819 -1.03448355
Pu -2.67798893 3.99372702 2.87860403
O 1.80922839 -7.47259205 2.89463519
O -7.90881377 -1.12871072 0.94667361
Pu -7.45320896 1.12734969 -5.82774386
O 6.89236895 3.91623854 -4.51073755
O -6.35070499 -8.92472300 1.87222795
Pu -7.35932491 -5.06667488 1.34888221
O -2.19408419 0.23835426 -9.37406955
O 7.23581182 -5.21613622 -3.52884253
Pu -1.12902146 -9.90845740 -2.96920653
O 2.50413274 5.49545555 7.79848383
O 0.35235024 -0.10260840 -7.12196323
Pu 0.42833782 -8.32284917 -1.08650591
O 4.04521650 -3.58523312 -1.82383084
O 6.24443733 -4.87007608 5.46625616
Pu 0.79801054 5.75120122 -2.73635960
O 9.36484172 -6.05570724 2.26698664
O 0.66330517 1.47520283 -0.84237726
Pu -3.24503966 10.34307896 4.81526236
O -1.78511197 -8.26665794 -7.40641523
O -2.48737269 -2.98564395 -3.16974720
Pu 6.13673065 7.61971049 -0.25481881
O 3.63042130 0.40005692 -7.94896933
O -2.90180951 8.70327780 -6.26936001
Pu -0.27064260 -1.51831244 0.34060648
O -2.79938502 -8.80822918 2.11149088
O -0.71848249 -7.38816613 4.18683894
Pu 5.55586548 4.70340554 -6.01060676
O -1.15405806 3.40163381 -1.10101532
O -5.24726255 4.80774789 3.86663889
Pu -0.73927048 -4.73112779 -0.18963464
O 6.86616578 2.50794265 -6.39402345
O -2.22940695 6.28311806 3.83619556
Pu 4.91691233 -0.97521653 4.86779477
O -4.10844154 -3.09505935 -5.38899443
O -7.79246776 3.43291034 -0.03520382
Pu -4.35064584 6.81289304 -6.12882691
O 3.37552447 2.87951686 7.18563894
O 1.43894481 6.50641933 5.97166563
Pu -7.30076081 -4.69220218 4.93660173
O 3.83142328 -8.17782744 -3.65439494
O -7.80540234 -1.10907805 -3.83234674
Pu 1.44066648 -1.50742415 7.07373994
O -4.93344072 4.94876652 -7.16434035
O 1.57611627 -6.30432690 -3.60469574
Pu -1.71439249 4.42386388 -4.98265100
O -8.39256969 -7.96409506 -0.81967191
O 2.97261341 5.21891812 -2.67113747
Pu -6.39759148 2.35758413 -1.58936788
O 7.78875415 7.37088515 -1.29165179
O -3.21495465 -3.84794201 7.55634845
Pu -4.86932677 -8.02068362 2.81232992
O -1.71607562 -9.65786209 -0.93250529
O -0.31573540 -3.35692077 8.23019048
Pu 10.33817347 -1.30138294 1.37442274
O 5.30603863 0.78294580 5.72069462
O -5.03320732 -9.67150694 -0.92802729
Pu 3.53362755 -4.60656895 -7.72991170
O -4.87549432 3.08664758 -3.40885103
O 5.23777047 -9.00011738 -1.46152512
Pu -4.97953769 -3.69860965 -3.69526347
O 1.39988023 -4.15377157 -8.62096280
O 9.06841373 -3.36512562 5.29089937
Pu 4.78875685 4.00861644 5.49444661
O 0.40510043 4.46932248 -4.28283559
O 3.00453664 -6.09249463 4.74067213
Pu -3.98971212 -5.15474983 3.71715335
O 7.25793179 2.41169567 -0.00728225
O 2.97599210 -9.50419624 -0.00357479
Pu -0.11449283 -2.97627822 -7.82842630
O -1.20011532 9.91594862 5.63905849
O -6.58132283 5.53219129 1.36699876
Pu 8.15043831 1.35660549 -1.34791414
O -0.93247657 -4.50072334 10.61368247
O 8.55451219 -0.41758374 -0.44570598
Pu 0.63924009 -4.65489046 9.36568954
O -2.53452658 -5.31362374 -8.28026463
O -3.72630240 -1.43736016 5.16561336
Pu -3.06572437 -0.72771583 3.46111230
O -1.25247972 2.49480451 -4.47543417
O 2.31445346 -3.99018374 8.25422866
Pu 9.87983395 -4.28465504 3.34337025
O -0.48066019 4.36072664 4.39134548
O 4.74404989 5.99883001 6.02737549
Pu -3.68109322 -4.25884740 -6.93264464
O 2.96127090 4.97023108 -6.09681659
O 1.05460241 -9.89872700 -2.26037516
Pu -1.24117763 -1.00625159 -10.48243823
O -1.55794053 -7.35146609 -5.25974726
O 9.42065192 2.75581336 -0.94188811
