420
ML-kMC step 1000
Pu 1.74192904 5.60506998 4.07783993
O 2.47777375 -0.05341841 7.98875397
O 4.88665849 -2.80846746 -3.88145717
Pu 2.77734823 3.03111522 -4.89154932
O -5.27365695 7.70155242 2.10717062
O 9.64181963 -2.47211098 -3.12124961
Pu -7.55119993 5.80895210 -0.44795212
O 3.01001710 -11.44530182 -1.61300773
O -6.91587781 -3.41210094 -4.54925336
Pu -3.83142472 3.51297116 -7.97525938
O 0.83637308 -6.94543630 6.15439981
O 4.78863468 7.02968923 8.27319471
Pu 5.47084304 -5.56423822 3.70277135
O 2.19700481 2.24121798 1.06979441
O 5.30077394 5.97496658 -4.52537779
Pu -1.52295580 5.30239743 5.90052522
O -5.73716424 0.63915882 -5.25343982
O -4.25990848 1.27391973 -1.51395195
Pu -5.17695554 5.18084200 -3.15517885
O 7.25903459 2.57418579 -2.64333158
O 3.59781329 -1.10697217 3.12723514
Pu 1.51909308 3.90101168 7.96446360
O -4.63307217 1.34636477 -8.32466819
O -5.96217560 7.07668998 -0.80290225
Pu 0.42643579 -5.43636367 -9.92766704
O 1.90524169 7.41036836 -2.61411051
O -5.50658213 2.36772644 7.55547751
Pu 5.76395592 -3.36514518 -0.99626345
O -1.14746906 2.99558279 2.10999691
O -0.60047603 3.35428393 7.57990007
Pu -0.44415056 7.08019479 1.51031091
O 4.62586515 -5.59339379 1.77894523
O 1.12117347 3.89385121 5.93151691
Pu -3.39816981 -0.39747064 -8.05529375
O 1.01976506 -6.11361709 -6.02299362
O 0.53738624 8.75666024 -5.07797987
Pu 0.13746447 3.18498480 0.39988789
O -2.07161752 3.67024171 -8.74549818
O 4.61440831 -3.29525474 4.01585972
Pu -0.11318151 3.20089783 -8.95206727
O -6.39823960 4.97964973 7.36799544
O 0.64902758 -1.33361139 -9.10833459
Pu -3.47018717 -7.90452972 -6.37128437
O -4.60457426 -5.96719242 -6.43637047
O -5.75489564 -5.61590643 4.30664640
Pu -0.86259308 -6.09201250 5.96730034
O 6.12904567 2.70455466 6.51698922
O 0.86906916 -11.00417991 0.64017922
Pu -2.34945484 8.00935577 7.40714868
O -2.35320925 2.03832658 4.89481829
O -8.96210376 5.93085877 0.94452351
Pu 5.32393809 1.14594318 -7.13033983
O 3.47824358 -6.68862894 7.77297692
O 0.58183066 7.37528583 3.35658002
Pu 4.24700756 0.85701900 7.77057018
O -3.79683122 -5.49913462 -3.14158228
O -9.15303647 -4.66442901 0.59981522
Pu 7.37182150 -2.75401734 2.07297600
O 2.03277829 4.05697676 2.91956505
O -0.87701332 7.07798960 -2.16310544
Pu 0.17838208 8.95090563 -2.60262556
O 4.69485432 8.73119569 1.19066273
O -5.98642357 -6.56176954 1.33370497
Pu -1.47700640 6.81714191 -8.49835147
O 4.12613751 6.62404376 -0.08765739
O 3.96244054 2.31290993 -9.81410241
Pu 2.19468349 -7.91832179 4.79105442
O -4.43063797 2.59944712 2.47950428
O 1.50969428 9.36122281 -0.76358829
Pu 2.74179477 -5.12728815 6.84766129
O 2.91219551 -1.36711673 -9.64573989
O 0.56191511 -7.27108581 -8.76161067
Pu -8.87022952 4.90262438 4.86812139
O 9.77888554 0.79507506 1.66957769
O 4.94326383 -3.33362786 -8.24245777
Pu -0.81257847 -6.29980624 -3.77396415
O -8.59208911 6.86543820 4.58743809
O -6.92245457 5.02159892 -4.16468236
Pu 5.02431128 6.06123163 1.99681482
O 3.89197798 4.30481827 1.29310702
O -8.25913954 3.01769607 -5.34679713
Pu 11.37717368 2.68661412 -1.60634840
O 6.62868180 4.83422192 6.40206965
O -1.89649224 6.09536090 7.91185616
Pu 3.69036706 1.14396602 -0.82342867
O 0.57173766 -1.66522051 -5.36177387
O -5.49310248 -3.22564531 5.74230328
Pu -1.07166915 0.88942728 -5.91558092
O 3.70622435 5.43411670 3.71753386
O 2.86207890 7.35026252 -4.77091262
Pu -10.21357756 1.74894756 6.16263519
O -9.15302680 3.56837970 6.49492957
O 12.12811513 3.77173836 -2.97980638
Pu -9.47141214 3.98875204 1.50932659
O 5.36771377 5.91690685 -1.61217397
O -3.44147337 4.12591549 5.36849308
Pu -8.91246025 0.60903966 0.52813991
O -10.05085674 4.37215799 3.37033186
O 1.26035229 -8.79822015 -5.66161676
Pu -9.14892409 -5.90913904 -0.95959439
O -1.90999878 -0.59939807 -0.30106819
O 1.97897748 4.46141804 -8.43025307
Pu -1.57396330 -3.23320281 6.84576474
O 4.41874933 1.81523921 1.68741908
O -3.36196049 6.32405072 6.13248870
Pu -4.37044905 7.35601839 0.38138232
O -3.29488308 0.27886154 -5.50670968
O 6.40896225 4.96469672 3.08753038
Pu -0.88281627 8.56756394 4.33722031
O 0.15608533 4.20301358 9.57616799
O 7.81133410 2.53534641 2.49939326
Pu -5.63852489 -1.11509737 5.61547343
O 0.25581964 0.65122526 -10.34720823
O 4.83615787 3.23366603 -1.10549699
Pu 6.92611919 -1.08889375 -3.77564050
O 6.65110052 -5.10163231 -1.37299910
O -2.05135958 5.98803524 -6.06983741
Pu 2.06299076 -9.55026190 1.70910775
O 6.40215694 5.36383949 0.61789015
O 11.12312272 0.78723992 -2.33543194
Pu 9.27624172 3.59964343 0.92295573
O 7.68191846 -4.66381873 3.04726566
O -1.27008485 1.26939762 7.03707977
Pu -3.28532353 -1.59347111 -1.80067751
O -0.21956968 7.45671560 -7.15164618
O 0.07414062 -1.74652637 -11.90498365
Pu 1.47698925 6.63012312 -5.99821900
O -9.40426219 -4.93158218 -2.96736753
O -0.49603148 -11.87920697 -2.32358456
Pu 2.37914317 -2.67971608 -1.46791825
O -6.93555007 0.63746550 -0.93976228
O -4.52367985 -4.40881595 9.54928230
Pu 3.27538756 -9.58052733 -2.33155676
O 6.54198528 -4.41012363 -6.33224771
O -0.08773400 -4.96426652 -2.43466592
Pu 2.97102653 8.33447697 -0.00190098
O 8.25615452 0.40065379 -3.12277292
O 3.69640161 -6.21649270 -6.62956219
Pu 2.47784211 -7.43813626 -4.99364202
O -4.25918590 4.40886489 -5.02777549
O -9.38021928 -0.41706437 -1.25575511
Pu -3.10234483 7.68971142 -2.50000274
O -0.72867026 -5.18168603 2.38085592
O 5.21015501 5.21833205 -7.91576009
Pu 4.79500751 -8.05281110 0.22476219
O 1.26038534 1.86989644 -4.86834798
O -3.50743953 3.30878919 -0.14028837
Pu -4.34504953 1.23035393 -3.86231870
O 1.79300915 -4.46358569 -11.00489556
O -5.70847225 -7.23935210 -1.66740761
Pu 7.24045236 -3.00071900 5.98229728
O -4.47747271 -1.76636982 -7.27740049
O 6.17691204 -1.41496776 6.53301340
Pu 6.49383425 6.59016023 7.36841078
O -1.07713776 5.31988685 1.12583390
O -8.39374346 1.81324072 7.38751371
Pu 8.04679761 4.02237528 7.72469987
O -2.82699589 -8.92903842 -2.98174664
O -2.18716457 -2.08142897 9.27684514
Pu 5.78485931 4.15707414 -2.81376606
O -10.06228157 2.18837813 0.72248855
O -1.47058587 -3.90979656 -6.67185927
Pu -0.54312621 -3.30505299 3.21335314
O 7.17209005 -1.27813793 4.45504771
O -4.11677299 5.96838975 -1.57607068
Pu 2.45533281 -2.54804093 2.44217394
O 3.75299471 8.71282975 5.75210042
O 4.74961663 0.14926629 -2.94726084
Pu 3.00416403 2.37956299 3.01504909
O 2.53571110 -3.05540358 -7.12998117
O 7.98734030 2.27029479 8.51197440
Pu 1.10096016 -11.77458474 -1.20102043
O -7.40951097 2.02093587 2.36336874
O 0.49843045 -8.33680224 1.01376647
Pu -6.61457813 -8.15559078 0.02866421
O -7.33961532 -0.84834018 -6.59905973
O 2.92017158 -3.88606403 0.95751752
Pu 6.81352320 -2.60519969 -7.42592064
O -4.80589982 -8.50650601 -5.12331980
O -0.95408395 -3.08809063 -1.13889770
Pu 5.86026726 -6.95541243 -2.72993925
O 6.82197591 -6.97753093 -0.02120274
O -8.09615519 -4.77070036 3.17308034
Pu 3.43186427 4.71338150 -0.70400706
O -10.00163168 -1.64519472 -3.97273711
O -5.80766052 -3.81742999 1.62029462
Pu -0.04152393 -7.73146254 -7.00155049
O 6.38729335 -2.08368119 0.57122912
O -5.45901770 0.96241177 5.04079156
Pu -5.10711161 -4.03042457 7.71126468
O -2.62759715 -6.69896021 0.03856648
O 1.64475842 2.38093125 -8.96113389
Pu 6.18400914 3.24857867 1.60234018
O -6.66438809 -1.93197716 7.36035320
O 4.77808412 7.40178137 3.33070080
Pu -3.42649342 1.33320241 0.45608107
O 1.48283153 4.70307937 -0.97853373
O 0.24754911 -3.59028516 1.11897503
Pu 8.57415285 0.74401377 3.41643199
O 4.92617851 2.56057358 4.02978829
O -0.05124782 6.44379659 -4.61919428
Pu -4.42838727 -5.77395787 -0.01641738
O 1.34552630 -3.86379106 3.32949208
O -6.44286940 4.53934929 -1.75666123
Pu -1.80693050 -0.41374497 8.38692797
O -6.02618577 -1.32321060 3.50230832
O 8.74501044 0.53508246 5.41684872
Pu 2.25196145 -0.90353224 -7.05909152
O 6.58507954 0.51132672 -5.69358040
O 2.30586494 -9.56134214 3.70384286
Pu 7.98760630 2.10560119 -4.74367958
O -3.77215352 -6.24905633 2.17915593
O -0.32723784 5.19681738 -9.20645414
Pu 3.12601611 7.23091753 7.07087426
O 6.07464967 0.84425045 8.50517292
O -1.60851151 -1.09172301 1.84844139
Pu 8.75713729 -4.19151267 -2.75408420
O -2.51482944 5.72522484 -3.14940857
O -2.10319038 0.65487880 -2.46010823
Pu -5.08360547 4.90951035 5.96078166
O -6.23378424 -5.44865655 7.04574772
O 1.48163526 7.19952061 0.79604045
Pu 5.64340783 -4.39944053 -4.63041484
O -0.27987258 -2.09604674 5.90477031
O 0.12452603 -0.88358880 8.37089816
Pu 4.13226142 6.89448273 -3.25774850
O -3.00746584 3.46990800 7.43873103
O -7.23275049 -6.03586834 -0.58859424
Pu 2.36422885 0.65797180 -9.68440551
O 1.70622179 -1.65761060 0.34967432
O -7.37485856 1.25559635 -3.32268687
Pu -0.45735651 -2.62926363 -3.91117921
O 6.94925493 7.94717294 5.67139857
O 9.15435638 4.30176278 2.88013368
Pu 7.73534045 4.31926124 4.38613131
O 11.03963617 -1.42028883 -0.38834542
O -2.33982412 1.28890068 9.30302079
Pu 2.22800616 -5.82769168 1.65836895
O -0.29743336 -6.61327098 -0.63110450
O -10.30313814 -0.25921154 6.44074255
Pu -7.34192690 3.37132301 7.75401736
O 8.24621566 5.97362577 7.81888821
O 1.94318714 1.16756403 -2.65009909
Pu 10.30440326 -0.96364616 -2.14913968
O 1.57487043 -2.22878642 -3.24501783
O -4.19736184 -0.36872037 1.69351111
Pu -7.18135943 -1.52590747 -1.70215244
O -5.07069415 -1.50545313 -3.25455748
O -2.18019850 2.65317423 -6.87756778
Pu -6.05498582 -1.44144862 1.51088876
O 4.46965529 -5.99277178 -1.77303289
O 8.40562360 3.17436454 5.94270793
Pu -9.55436073 0.06389735 -3.23668813
O 9.55180622 -5.18948375 -1.18609611
O 3.61583291 -1.21649309 -1.34629059
Pu -7.10282612 6.87952379 2.79261572
O -1.59196255 8.85608824 -3.34292245
O 2.00710638 -7.79073799 -2.09697323
Pu -2.76971247 -3.81841657 10.13268101
O -3.25018382 8.57136141 4.18083376
O 4.51845108 8.35594179 -1.46419582
Pu -8.77892949 -3.38266223 -4.03766048
O 11.06148095 2.58635620 0.55674867
O -9.02287177 2.17006436 4.63386615
Pu 3.78732868 3.77651518 -8.44377777
O -1.02585296 -5.27485203 7.95293358
O -4.02472389 -6.98865730 4.27652668
Pu -8.65311184 4.04905748 -3.56721168
O 2.90817628 -7.24955216 0.17993409
O 8.99974996 -1.98823455 2.79493060
Pu 1.43303775 -2.52253802 -10.72674841
O -3.70971004 7.09976673 -4.35125152
O -8.62894489 -3.41645226 5.64416077
Pu -1.92314173 3.34043784 9.09431353
O -4.37325295 -7.96209558 0.60616559
O -2.00239322 -2.18067736 -8.56436230
Pu -2.37526095 4.93076010 -1.09287225
O -1.80886789 10.08497537 3.14901362
O 4.37352651 3.93389496 -4.29829229
Pu -3.89146021 1.72727479 6.45765620
O -4.74952734 -3.60228165 -1.74878349
O -1.07372650 -0.85833927 -4.21765220
Pu -1.46233540 -7.05067593 2.24258684
O -1.51113461 -4.48992816 5.14552833
O -7.59425564 -0.48316192 5.67066929
Pu -0.41600202 2.43836642 5.79741489
O 1.24867315 -3.98229250 6.03096195
O 5.14350513 -7.75543781 2.19756977
Pu 3.11148314 -1.11876107 -3.77006540
O -6.83363199 3.40592436 5.04448649
O -5.41292727 -1.24719801 -0.46631717
Pu 7.13718028 0.81658039 6.87944094
O -4.10429224 5.89443220 1.63360889
O 4.81819016 -6.15192366 -4.41080090
Pu -7.33384809 1.24137886 4.64580053
O 1.33523952 1.50959959 4.51041110
O 6.03445768 -0.73513467 -8.05010119
Pu -8.72622334 -1.62945774 6.70868303
O -9.04342905 4.99892059 -1.84649399
O 8.35100255 -3.63009628 0.56422722
Pu 2.45832500 -5.85025317 -1.96923537
O 11.10411294 -3.21988530 2.35876836
O 7.18862252 -2.34765883 -5.51211601
Pu -1.34803476 7.96360243 -5.27818802
O 7.04604813 -2.49483542 -2.41644113
O -9.80195558 2.16195449 -2.80921815
Pu -4.07342140 6.79213030 3.94266394
O -1.17189360 7.35781603 5.92214854
O -0.30818762 -3.29308320 -9.92665185
Pu -5.68450967 -1.57181429 -5.53112033
O 3.24603358 -0.24982680 -5.46946742
O -3.28646593 -0.24611606 7.18379044
Pu -3.35259760 -9.49854075 0.10185024
O -3.35050135 6.36887286 -8.17864554
O -7.98705342 -3.17887148 -2.19357122
Pu -4.85360221 -8.50882408 -2.95117846
O 1.59604810 -4.37218046 -1.10076364
O -2.15783470 7.18438363 0.20685667
Pu -6.42421848 3.80585444 2.69439063
O -0.40287873 -8.07062494 -2.82740535
O -5.84081951 6.77539128 4.66877203
Pu 8.33789913 -5.77016737 0.60332941
O 4.25011489 2.79538513 -6.58675521
O -3.76274915 9.48184130 6.74983600
Pu -0.14010947 0.92738345 -2.59518505
O -2.80436858 -3.28096830 3.09782647
O 3.28163451 -1.20921203 6.06908760
Pu 5.36882628 8.62448909 4.71533013
O -7.94643811 4.89281509 3.20156492
O -3.83966270 8.81799222 -1.02030993
Pu -2.66669976 4.04954888 2.89068484
O 1.82356470 -7.46481826 2.91630824
O -7.91273636 -1.04957375 0.95622238
Pu -7.52077687 1.09213666 -5.83657323
O 6.96801570 3.87767707 -4.66836561
O -6.39818005 -8.90703183 1.93485197
Pu -7.31636144 -5.05693804 1.38900911
O -2.17305701 0.19560344 -9.38149119
O 7.28963906 -5.25487770 -3.55518408
Pu -1.12973086 -10.00395215 -3.01989546
O 2.53469969 5.52523413 7.75071707
O 0.32100699 0.01998289 -7.05098788
Pu 0.43483455 -8.31259701 -1.06524154
O 4.05534189 -3.58929147 -1.85694568
O 6.24155857 -4.71470412 5.34916622
Pu 0.81126709 5.75307960 -2.74675740
O 9.28848093 -6.06472766 2.28719421
O 0.63228337 1.45034329 -0.81852409
Pu -3.28337625 10.50106585 4.84631294
O -1.85150726 -8.48032609 -7.51022137
O -2.46836721 -2.99459321 -3.08078804
Pu 6.18182936 7.67614294 -0.25672183
O 3.60039610 0.49528204 -7.76213733
O -3.03707751 8.62195466 -6.27212594
Pu -0.28155125 -1.48130190 0.36421415
O -2.80809776 -8.80663076 2.11065065
O -0.75879609 -7.44661069 4.21390031
Pu 5.55586548 4.70340554 -6.01060676
O -1.15308110 3.40350184 -1.16402889
O -5.24726255 4.80774789 3.86663889
Pu -0.59170487 -4.73842030 -0.15091991
O 6.83605034 2.50341292 -6.44416429
O -2.24137862 6.29180496 3.83315572
Pu 4.90510905 -1.01704945 4.81319406
O -4.17182045 -3.10776602 -5.39609903
O -7.78823593 3.53785384 -0.01596419
Pu -4.21826719 6.95342687 -6.17804090
O 3.35570770 2.84092633 7.19198968
O 1.39668398 6.48451838 5.94375091
Pu -7.30523322 -4.70305265 5.02484277
O 3.83187695 -8.13407146 -3.69113395
O -7.83158535 -1.00436382 -3.93306747
Pu 1.45971571 -1.47606637 7.08142394
O -4.83027999 5.13365272 -7.34132153
O 1.61372215 -6.29143354 -3.64225345
Pu -1.71439249 4.42386388 -4.98265100
O -8.39933941 -8.00295632 -0.80833920
O 2.95179536 5.22399533 -2.66688051
Pu -6.39387126 2.35796286 -1.58476884
O 7.79079374 7.39519040 -1.36121391
O -3.21759647 -3.90333889 7.54134075
Pu -4.95409203 -7.91733237 2.82499715
O -1.71518581 -9.80653315 -1.05860752
O -0.30971607 -3.33021316 8.28406270
Pu 10.33992698 -1.35927352 1.40576429
O 5.43216619 0.69191896 5.90183350
O -5.07753023 -9.58036831 -0.97553470
Pu 3.60880636 -4.58792664 -7.72286086
O -4.87177409 3.08702631 -3.40425199
O 5.06122898 -8.97402313 -1.46723803
Pu -4.97816189 -3.70637436 -3.66512913
O 1.44431180 -4.29042851 -8.61539165
O 8.88170881 -3.50262503 4.96670487
Pu 4.76811203 3.98735361 5.47447822
O 0.41191349 4.47829699 -4.27427461
O 3.32981766 -6.19638085 4.78800804
Pu -3.99842487 -5.15315140 3.71631312
O 7.25793179 2.41169567 -0.00728225
O 2.98155102 -9.48199773 0.01722827
Pu -0.10971990 -3.02029885 -7.83327296
O -1.10996960 10.11168596 5.74327798
O -6.60955349 5.54493660 1.49941865
Pu 8.09566235 1.22905637 -1.34984724
O -0.94528473 -4.58675328 10.83758019
O 8.60523336 -0.57996481 -0.46486254
Pu 0.66187688 -4.67381550 9.41785563
O -2.64146622 -5.41799203 -8.10903193
O -3.62665947 -1.38664874 5.21860727
Pu -3.05722635 -0.80114892 3.31654813
O -1.16798687 2.57480796 -4.27717310
O 2.36572321 -3.96446677 8.39082523
Pu 9.77250191 -4.23402377 3.27099113
O -0.39171831 4.49961702 4.51358085
O 4.70357425 5.99262814 5.84446631
Pu -3.68201219 -4.30122934 -6.89393709
O 2.96127090 4.97023108 -6.09681659
O 1.04039139 -9.95767564 -2.27989690
Pu -1.18323613 -1.14269408 -10.32786992
O -1.65353128 -7.59145413 -5.48069977
O 9.47604548 2.73880677 -0.96710460
