420
ML-kMC step 2500
Pu 1.44229800 5.80026727 4.18675419
O 2.48051544 0.72059996 7.74761652
O 5.17288193 -2.61463216 -3.61680305
Pu 2.79424936 2.95237335 -5.41492593
O -5.85696892 7.95249180 1.87630502
O 9.95490453 -2.72271111 -3.38334584
Pu -7.54398588 5.66323739 -0.57493648
O 2.63514395 -11.31862989 -1.53185874
O -7.00042354 -3.13831794 -4.64682941
Pu -4.21850774 3.52414009 -7.27433632
O 1.47747912 -6.75017980 6.01739054
O 4.94419217 7.27936551 8.12152610
Pu 5.50185908 -5.57274088 3.64835232
O 2.37492855 2.84597942 0.10731043
O 5.67744516 6.28089994 -4.78636698
Pu -1.18042106 5.54747033 6.40769006
O -6.14990294 0.63276850 -4.85789957
O -4.67777842 0.91916851 -1.46788088
Pu -5.30531264 5.04415544 -3.41401634
O 7.99349314 2.59578113 -2.86623791
O 4.36627517 -0.74189286 2.70780537
Pu 1.74560140 3.97048267 7.94458406
O -4.50376684 1.51322132 -8.13852576
O -6.13578525 7.24246285 -0.93844889
Pu 0.10021103 -5.51705385 -10.47562696
O 2.26870815 7.43966803 -2.62115102
O -5.31849995 2.36462538 7.79425999
Pu 5.57709075 -3.23432753 -1.13139356
O -1.47913282 2.65602381 2.04948576
O -0.69422577 3.37897651 7.55343620
Pu -0.56283901 7.02821460 1.72214446
O 4.62089759 -5.34695690 1.44057279
O 0.84547146 4.22862106 6.12894342
Pu -3.53586498 -0.46278795 -8.24248638
O 1.20825434 -6.51332636 -6.17752238
O 0.54748897 8.48324120 -4.72934165
Pu 0.29661829 3.04155186 0.76836154
O -1.83473630 4.18367177 -8.44935188
O 4.94250244 -3.10265112 3.88225387
Pu -0.10415371 3.88447884 -9.23857018
O -6.63603497 4.85248516 7.42990791
O 1.05688545 -1.82923196 -8.76025399
Pu -3.15723420 -7.56900400 -6.50017711
O -4.80967074 -6.22166745 -6.93312044
O -5.80837473 -5.75143055 4.11971799
Pu -0.48058827 -6.38264679 6.10317890
O 6.27086841 2.50522059 5.92663662
O 0.94460290 -11.02327051 0.77879498
Pu -2.72989567 8.00923653 7.31240858
O -2.17376746 2.41160932 4.91037218
O -9.24644412 6.04470882 0.17842134
Pu 5.38900157 0.98501024 -7.51850826
O 3.58700081 -6.35019117 8.20657371
O 0.44375526 7.52663679 3.40271508
Pu 4.44153247 0.86666714 7.78744987
O -4.54398403 -5.76414368 -4.43079286
O -9.62574851 -5.15883663 0.74223496
Pu 7.34861573 -2.77130180 2.13712886
O 1.67949320 3.83148243 3.03765800
O -0.72648171 7.02773221 -2.45335186
Pu 0.33449497 9.01936078 -2.45819960
O 5.02690402 8.56713904 1.23665516
O -6.02345070 -6.46257303 0.90001880
Pu -1.80572174 6.63656486 -8.31231025
O 4.19017900 6.96661300 0.14645300
O 3.91980859 2.08597889 -9.31978253
Pu 2.53113061 -8.00295387 4.49709836
O -4.75845150 2.38273598 2.58815148
O 1.70666634 9.55596556 -0.81033628
Pu 2.91062461 -5.24967198 6.81290422
O 2.58944397 -1.04021170 -10.45575926
O 0.30476756 -6.39533439 -8.46743021
Pu -8.76772616 4.83863132 5.02223896
O 9.48219564 0.59054632 1.60200327
O 4.92909942 -3.05055666 -8.71273970
Pu -0.65274091 -6.33493840 -3.51695386
O -8.26870416 6.66438738 4.75928494
O -6.95425194 4.75504496 -4.36375016
Pu 5.10641052 6.01277567 1.89076792
O 4.14289183 4.25864968 1.54137702
O -8.46710384 2.90740057 -5.56194736
Pu 11.21794894 2.72963263 -1.13390897
O 6.39309246 4.48447673 6.59428309
O -2.10518353 6.34373545 8.21226823
Pu 3.79603582 1.11301525 -1.07684125
O 0.38607073 -1.77055029 -5.07937297
O -5.43382286 -3.40659422 5.98488368
Pu -1.20269660 0.84819120 -6.16967090
O 3.76374110 5.02475505 4.02413106
O 3.25486285 7.18385720 -4.93749686
Pu -10.76231524 1.95333936 6.10813645
O -9.68038123 3.68106203 6.43840770
O 12.32645512 3.45664794 -2.50700339
Pu -9.73711688 4.22875101 1.37762403
O 5.58474841 5.63824408 -1.71956665
O -3.07116966 4.59229220 5.51699595
Pu -8.98963247 0.36554140 0.47230430
O -9.73241682 3.89379859 3.27509352
O 0.95808441 -8.80069950 -5.43870744
Pu -9.34519981 -5.82476639 -1.16965051
O -2.45304960 -0.42565308 0.07490676
O 1.88165645 4.83481420 -9.42140766
Pu -1.55442432 -3.20285568 6.83067060
O 4.37354968 1.60930122 1.56314676
O -3.67878024 6.70400083 6.23380886
Pu -4.48155854 7.53892951 0.26583329
O -3.33851704 0.30296645 -5.69906692
O 6.50800374 4.86939318 3.02846070
Pu -0.68826461 8.74094717 4.48972994
O 0.48548762 4.14841294 9.43342438
O 7.80176208 2.37825545 2.83882007
Pu -5.73101601 -1.41687145 5.62987833
O 0.23537098 0.30680080 -9.94261814
O 4.75598060 2.96496332 -1.29627663
Pu 6.71332577 -1.07699967 -3.79080280
O 6.58742990 -5.10141128 -1.29190915
O -2.09925553 6.05390142 -6.08829955
Pu 2.00554133 -9.33156700 1.59587468
O 6.21737309 5.04931504 0.57413655
O 10.43942540 0.98292029 -1.65902416
Pu 9.03177103 3.53175324 1.29292636
O 7.12462590 -4.67073281 2.73624346
O -1.19002520 1.35195811 7.67632634
Pu -3.10103008 -1.55539183 -1.86311483
O -0.48714767 7.50661720 -7.07300727
O -0.55050137 -1.89702198 -12.04136892
Pu 1.85013997 6.64066285 -6.31796533
O -9.53107921 -4.80012981 -3.14096566
O -0.73790561 -11.89331538 -2.39123381
Pu 1.93197459 -2.64817404 -0.61713268
O -7.38558000 0.34775600 -0.89551100
O -4.84540231 -4.32366249 9.85702809
Pu 3.11288437 -9.57842073 -2.23853329
O 6.47019685 -4.38726414 -6.54570324
O -0.38641515 -4.70969418 -2.37819429
Pu 3.03201148 8.53676620 0.10970482
O 8.71321906 0.13298681 -3.67009749
O 3.73645491 -6.10682099 -6.78493570
Pu 2.75146083 -7.29562160 -5.06496851
O -3.82756095 4.75075305 -5.21600482
O -9.24236099 -0.40536333 -1.37458801
Pu -2.93599677 7.57440251 -2.57002693
O -0.86468896 -5.02651450 2.08801309
O 5.18613758 5.01406372 -7.88034900
Pu 5.08594272 -7.51017150 0.45058242
O 1.13568691 1.83916905 -5.03353431
O -3.36728193 3.52738061 0.21725311
Pu -4.30197862 1.14002233 -3.64333620
O 1.19628766 -4.51518181 -11.68366111
O -6.03622494 -7.18837177 -1.77222532
Pu 7.33866323 -2.92261369 5.71182737
O -4.77519854 -1.77425246 -7.28646561
O 6.71458323 -1.28861790 6.47793735
Pu 6.49863898 6.55179962 7.24428189
O -0.81268838 5.12557251 1.11577333
O -8.56411124 1.64233383 7.45180969
Pu 7.95172203 3.89432460 7.66359368
O -2.53677560 -8.82754680 -3.09832081
O -2.54597411 -2.14799712 9.29723663
Pu 6.01422731 3.96160295 -2.64169187
O -9.40849953 2.28430661 0.89842664
O -1.23764410 -4.25450591 -6.33718324
Pu -0.29107786 -3.44356954 3.29991972
O 6.90502234 -1.10840148 3.93043071
O -4.23796609 5.63173153 -1.83769844
Pu 2.83901149 -2.12226195 2.54244722
O 3.46997936 8.42204335 5.36642449
O 5.47326590 0.10527193 -2.39038772
Pu 3.20519689 2.23677687 3.13956278
O 2.65861786 -3.10740782 -6.95982808
O 8.70682675 3.48471997 9.43300131
Pu 0.91452892 -12.13107929 -1.02055187
O -7.22539840 2.11143744 2.62794358
O -0.02407712 -8.72269362 1.13243200
Pu -6.90940576 -8.12724336 -0.20775761
O -7.35554346 -0.68970691 -6.47725137
O 2.99025294 -3.55095163 1.21841254
Pu 6.56996377 -2.69268645 -7.63382026
O -3.82314070 -8.83486547 -4.70207801
O -0.87390766 -2.60704703 -1.18216345
Pu 5.60653629 -6.81676767 -2.71388478
O 6.89261108 -6.97844615 0.17943837
O -7.86475905 -4.95766982 3.33450555
Pu 3.36264644 4.67601400 -0.47270519
O -10.27525593 -1.66481560 -3.96314264
O -5.81141190 -3.97759531 1.57474988
Pu -0.03055484 -7.74183549 -7.03220567
O 6.38396010 -1.77483837 0.56150447
O -5.41275001 1.03996185 5.45774891
Pu -5.33222533 -4.07245879 7.98662220
O -2.39363741 -6.00636147 0.03191032
O 1.45792313 2.57435487 -9.03551339
Pu 5.84255476 2.92771247 1.65732544
O -6.57494916 -2.03633132 7.23120672
O 4.83720393 7.41876698 3.23646836
Pu -3.53448543 1.65702347 0.74834499
O 1.36313285 5.24770993 -0.95698869
O 0.32069870 -2.80524495 0.90459615
Pu 8.66957253 0.42035204 3.44950797
O 5.27584244 2.59353878 3.89537770
O -0.16668207 6.55355243 -4.85627863
Pu -4.55754714 -5.69115839 -0.46439114
O 1.56450925 -3.92525426 3.57402836
O -6.43288974 4.24870177 -1.77675900
Pu -1.93727475 -0.14014938 8.84640168
O -6.58631732 -1.75792684 3.83139666
O 8.62187176 -0.11630479 5.51214383
Pu 2.19839311 -0.98500276 -7.28099161
O 5.80008581 0.13167284 -5.61994918
O 2.72794203 -9.66901611 3.54212989
Pu 7.93559787 1.91473238 -4.92150190
O -3.52601343 -6.31870575 2.07503380
O -0.34972418 6.15520832 -9.45398528
Pu 3.14148484 7.35411955 7.02528380
O 6.20909854 1.02789553 8.60258145
O -1.56008218 -0.89270175 2.21223239
Pu 8.92645732 -4.36312424 -2.91265655
O -2.52233290 5.46105719 -3.44958792
O -2.50243995 0.42866122 -2.07653470
Pu -4.98944463 5.02455672 6.23916216
O -6.40412549 -5.33421990 6.93864753
O 1.45327698 7.21103497 1.04757466
Pu 5.93656078 -4.34036785 -4.69186445
O -0.40044886 -1.79819515 5.79726991
O -0.05720735 -0.71882007 8.59803035
Pu 4.32042041 7.09979450 -3.17693039
O -2.94942244 3.22785604 7.94942207
O -7.44667977 -5.75835129 -0.68183397
Pu 2.27809392 0.74473499 -9.81763184
O 1.88077819 -1.16519013 0.84145234
O -7.40009347 1.22447945 -3.36192679
Pu -0.54169312 -2.67864810 -3.63227684
O 6.76053153 7.81904674 5.74472765
O 9.62652690 4.14446151 3.03800280
Pu 7.89805185 4.29784647 4.27915275
O 11.79448708 -1.58496434 -0.46835373
O -2.34436592 1.42718957 10.16273576
Pu 2.69079787 -5.63721619 1.53817408
O -0.02074341 -6.55313029 -0.84190235
O -9.45241409 -0.13246804 5.33891666
Pu -7.09849191 2.97727665 7.42817404
O 8.40154170 6.04858426 7.22265357
O 1.91528459 0.83571633 -2.06609558
Pu 10.69195308 -1.04649325 -2.04845582
O 1.41192680 -2.62510606 -2.71939277
O -4.50222086 -0.01522062 2.11067564
Pu -7.33186932 -1.47669757 -2.31799363
O -5.11669402 -1.50424055 -3.45662789
O -2.53543542 3.20164633 -6.41300146
Pu -5.89640751 -1.33190497 1.28908258
O 4.19489103 -6.16226980 -1.51386280
O 8.64224301 2.99866294 5.94741097
Pu -9.71573201 0.15969318 -3.27189147
O 9.00817133 -5.26353812 -1.17362317
O 2.93505586 -1.15027744 -1.46446199
Pu -7.21371011 7.20481910 3.04085512
O -1.98513009 9.21835977 -3.23369613
O 1.96381712 -8.00013264 -1.96051473
Pu -2.90998175 -3.96273432 9.88146030
O -3.42559315 8.97705183 4.64282565
O 4.81223586 8.26019120 -1.52678945
Pu -9.00280710 -3.28880444 -4.17823769
O 10.91925933 2.39210792 0.78475933
O -9.26852576 1.81717915 4.73094564
Pu 3.64145136 3.83523779 -8.41564598
O -0.93306168 -5.66690542 7.92519089
O -4.11553817 -7.26519446 4.26066802
Pu -8.88195891 3.98037597 -3.85291058
O 3.06734644 -7.18833060 0.22773480
O 9.21725725 -1.86989300 2.67367771
Pu 1.13155753 -2.43700429 -11.17988580
O -4.08894632 7.46249537 -4.15403378
O -8.31569108 -3.42004965 6.03941268
Pu -1.37503934 3.24091186 9.37819009
O -4.11132262 -7.95391585 0.20184619
O -1.92101860 -2.21520313 -8.68471337
Pu -2.46849635 4.87270744 -1.03879804
O -2.00910623 9.80880451 3.40948435
O 4.43374530 3.67250908 -4.47068126
Pu -3.89009235 1.82706262 6.65654692
O -4.34594443 -3.96867303 -1.78866855
O -0.79927842 -0.59584431 -3.26022140
Pu -1.58943721 -7.01307116 2.30045336
O -1.76774469 -4.70275648 5.16364857
O -7.40936212 -0.41597666 5.53699128
Pu -0.33737447 2.30893268 5.82374240
O 0.95663880 -4.27295851 5.96094564
O 4.70845861 -7.31618300 2.60632796
Pu 2.64578812 -1.23317114 -3.65222368
O -6.94998088 3.33031724 5.19151275
O -5.66956120 -1.72124651 -0.86644978
Pu 7.30135296 0.72405419 6.68760555
O -4.24933169 5.64186921 1.56846806
O 4.79192632 -6.05898858 -4.30955702
Pu -7.28161512 1.51535527 4.47512482
O 1.75957699 1.48441543 4.66220366
O 6.48842080 -0.93062461 -8.35096101
Pu -8.57766675 -1.57846360 6.58234665
O -9.38480718 4.67261475 -2.15483542
O 8.26658271 -3.38695112 0.54721837
Pu 2.29963739 -5.93743487 -1.63961491
O 11.01716868 -2.90826720 2.00181228
O 7.36434925 -2.41639602 -5.61547937
Pu -1.34451772 8.19095852 -5.44478111
O 7.36264568 -2.85971467 -2.74366309
O -10.16768845 2.03131951 -2.96586662
Pu -3.81388619 7.06000460 4.13679582
O -1.29747003 7.35235091 5.72125641
O -0.29756423 -3.36768069 -9.99886379
Pu -5.85249097 -1.40897931 -5.41456070
O 3.48208578 -0.15618729 -5.67330988
O -3.20256659 -0.33354994 7.25822583
Pu -3.17037916 -9.81896469 0.20110823
O -3.73522140 6.57445086 -8.17572683
O -7.97026917 -3.33455637 -2.25882149
Pu -4.56933555 -8.27435611 -3.00093411
O 1.44688821 -4.80288015 -0.01136699
O -2.17100596 7.16340699 0.28811514
Pu -6.45022100 4.05277200 2.60396900
O -0.32356428 -8.16867083 -2.82960456
O -5.72559417 6.71011255 4.55962069
Pu 7.99762532 -5.34817848 0.60383285
O 4.45358652 2.66633664 -6.88144785
O -3.11388902 9.72233968 6.54051480
Pu -0.60521329 1.55157916 -2.29333885
O -2.47284605 -3.19571618 3.35093965
O 3.54540404 -1.33373066 6.01873030
Pu 5.43103915 8.63094261 4.64811832
O -8.01309209 5.13244343 3.20585402
O -3.95825697 8.72064518 -1.13930101
Pu -2.62512267 4.20169896 3.51299853
O 1.80086832 -7.29974693 2.29392622
O -7.95841419 -1.30240386 1.08318895
Pu -7.64480547 1.18538220 -5.91713124
O 6.80923669 3.53716858 -4.49141106
O -6.37494892 -8.93880459 1.47378100
Pu -7.67127422 -4.90922734 1.34446183
O -2.71349251 0.04924948 -9.92445847
O 7.43527775 -5.31003160 -3.85793674
Pu -1.04625220 -10.06609287 -3.13164830
O 2.67700278 5.64431534 7.98934961
O 0.30761526 -0.18391480 -7.33359362
Pu 0.28822722 -8.48878139 -0.87815830
O 3.76112933 -3.74538766 -1.44719884
O 6.33768440 -4.61525433 5.42317068
Pu 0.92769316 5.85091305 -2.96388659
O 9.39202646 -5.67723869 2.56776215
O 0.05727540 1.32753669 -0.19856320
Pu -3.01572459 10.87477712 4.90573351
O -1.71792449 -8.75421094 -7.58793817
O -2.65903622 -3.05396528 -3.13820193
Pu 6.26325534 7.51156940 -0.51849261
O 3.64184331 0.24764307 -7.98999752
O -2.79190863 8.11676260 -6.82692402
Pu -0.34880579 -0.76868595 0.32559827
O -2.77545273 -9.11109332 2.08865530
O -0.64424258 -7.41622547 4.31797154
Pu 5.68356418 4.64255658 -5.94413340
O -0.94174422 3.36552334 -1.12931328
O -5.08257775 4.53055890 4.12146563
Pu -0.62198786 -4.70950918 -0.19582649
O 6.94753810 2.14201514 -6.66199457
O -2.06884173 6.71608172 3.42565244
Pu 5.04176444 -1.08308659 4.65354604
O -4.24160911 -3.00385893 -5.28559737
O -7.64153815 3.55689325 0.07117493
Pu -4.30461930 6.77789621 -6.07910144
O 3.72598989 3.11196536 7.21391535
O 1.23440422 7.06484042 6.03874228
Pu -7.11489370 -4.79767806 5.20755775
O 3.75533967 -8.12568264 -3.60880571
O -7.95688703 -0.87339851 -4.03277490
Pu 0.95676160 -1.62686622 7.17749141
O -5.56763692 5.26267286 -6.63172529
O 1.58424173 -5.96349319 -3.41558142
Pu -1.70317625 4.35114643 -4.89282643
O -8.79784099 -7.71911733 -0.88772772
O 3.30342345 5.15585861 -2.64119945
Pu -6.75717711 2.16733996 -1.47481598
O 7.90359386 8.07836041 -1.30220350
O -3.18289450 -4.05806475 7.78393380
Pu -5.13912373 -7.77519444 2.49397202
O -1.74416734 -10.09266209 -1.06066894
O -0.29412855 -3.23185062 8.25351274
Pu 10.53164022 -1.06508969 1.02046862
O 5.26964118 0.29352119 6.01877831
O -5.11954282 -9.51731854 -1.17370005
Pu 3.75880157 -4.50547895 -8.01944796
O -4.98952106 2.99008603 -3.40251801
O 4.63776911 -8.62640518 -1.57585736
Pu -5.20245040 -3.68877979 -3.75820594
O 1.43163459 -4.66467365 -8.92508698
O 8.80502769 -3.65268177 4.68549004
Pu 4.87278171 4.29852698 5.46483495
O 0.25942637 4.58278207 -4.34591581
O 3.49131701 -6.12189735 4.72792770
Pu -3.97736600 -5.20561700 3.92622900
O 7.20406582 2.51882611 0.17237300
O 3.22958432 -9.46442832 0.07546855
Pu -0.09112469 -3.62587144 -7.83606725
O -1.19168541 10.12222995 5.79518899
O -6.98061136 5.73430008 1.36753312
Pu 8.44133373 1.25670831 -1.07214911
O -1.22578927 -4.78114442 10.61107013
O 9.35250213 -0.50303140 -0.66121604
Pu 0.43050501 -4.81708487 9.49430828
O -2.65944753 -5.99254100 -7.92560871
O -3.72881142 -1.51210175 5.24032513
Pu -3.25619869 -0.87558341 3.50260626
O -1.61576935 2.13733800 -4.06799939
O 1.88135577 -4.03010519 8.53244780
Pu 10.21092173 -3.98828738 3.43607958
O -0.71911564 5.09940841 4.54198595
O 4.89231289 6.27690492 6.15909886
Pu -3.84769297 -4.49691610 -6.54512851
O 2.72201779 4.74547475 -6.70539336
O 0.94696408 -9.95189324 -2.17253973
Pu -1.26348615 -1.11881481 -10.44404671
O -1.71805677 -6.78727469 -5.27508684
O 9.37427836 2.97761315 -0.60603498
