420
ML-kMC step 1500
Pu 1.41253301 5.71072606 4.26659679
O 2.48051544 0.72059996 7.74761652
O 4.88597442 -2.73543788 -3.78565532
Pu 2.79538400 3.00665000 -5.40479000
O -5.78528499 7.89985111 2.02115275
O 10.44283520 -2.58615630 -3.32859001
Pu -7.36720798 5.81643562 -0.67988762
O 2.78414001 -11.62885017 -1.49389454
O -7.03218824 -3.16726578 -4.78361886
Pu -4.21850774 3.52414009 -7.27433632
O 1.49256771 -6.83782884 6.21289847
O 4.85694928 7.28428272 8.26498421
Pu 5.58407469 -5.98310736 3.87137101
O 2.30440259 2.80887284 0.16942709
O 5.67744516 6.28089994 -4.78636698
Pu -1.18042106 5.54747033 6.40769006
O -6.14990294 0.63276850 -4.85789957
O -4.37586362 0.91051684 -1.36447479
Pu -5.30531264 5.04415544 -3.41401634
O 7.99349314 2.59578113 -2.86623791
O 4.23856172 -0.71374299 2.77744230
Pu 1.74560140 3.97048267 7.94458406
O -4.61183794 1.49503119 -7.90039499
O -6.18240276 7.29964294 -0.99609852
Pu 0.21975306 -5.71879202 -10.49894906
O 2.33045752 7.32506085 -2.67344572
O -5.31849995 2.36462538 7.79425999
Pu 5.75474372 -3.30872491 -1.07801138
O -1.45759451 2.77966421 1.92556975
O -0.65691648 3.37313209 7.59958694
Pu -0.56283901 7.02821460 1.72214446
O 4.64849750 -5.33813386 1.48451979
O 0.82225355 4.21209761 6.17137537
Pu -3.53586498 -0.46278795 -8.24248638
O 1.20825434 -6.51332636 -6.17752238
O 0.54748897 8.48324120 -4.72934165
Pu 0.33881305 2.99718144 0.75376395
O -1.66306484 4.20500158 -8.67492578
O 4.86443779 -3.15920027 4.03822452
Pu 0.24979389 4.37029695 -9.67796155
O -6.63543769 4.94624303 7.44289682
O 0.95395875 -1.70867477 -9.06956660
Pu -3.18570819 -7.64290546 -6.63123627
O -4.75645872 -6.29732340 -6.84423289
O -5.81770471 -5.67664465 4.23084690
Pu -0.60010729 -6.26119837 6.13953940
O 6.17668475 2.56601266 5.86311887
O 1.18267013 -11.68907056 0.99389495
Pu -2.85148091 8.06201024 7.49962522
O -2.09930670 2.28058756 4.94984024
O -9.21022853 6.03581314 0.51186364
Pu 5.53224189 1.14424253 -7.88202864
O 3.57346035 -6.48092574 8.23439375
O 0.32160233 7.55395908 3.37723537
Pu 4.43335063 0.85822318 7.92387955
O -4.56423779 -5.74533656 -3.78957614
O -9.55707507 -5.41156051 0.52991250
Pu 7.35198062 -2.62885963 2.07918973
O 1.63413822 3.93967086 3.13604983
O -0.75010962 7.54019707 -2.27567509
Pu 0.21714115 9.27341867 -2.47318878
O 4.99804867 8.64619126 1.28916499
O -6.10772294 -6.40772191 0.87824022
Pu -1.87718873 6.87038361 -8.51353144
O 4.19017900 6.96661300 0.14645300
O 4.00692087 1.93936934 -9.45718454
Pu 2.53992730 -8.02810792 4.53794671
O -4.75807672 2.43994467 2.55166559
O 1.58595136 9.55375106 -0.87896623
Pu 2.90226900 -5.26113500 6.83299200
O 2.67482695 -1.02400428 -10.57465820
O 0.43386183 -7.07267390 -9.12070463
Pu -8.78953438 4.85730122 5.03864943
O 9.50150886 0.51646207 1.46677598
O 5.14582950 -3.38884749 -8.80101020
Pu -0.76541460 -6.45240918 -3.48998469
O -8.33749192 6.77084981 4.94266643
O -6.95425194 4.75504496 -4.36375016
Pu 5.08312537 6.00451466 1.91230027
O 4.02317944 4.36508484 1.32373700
O -8.42327214 2.77955371 -5.20956800
Pu 11.90499201 2.67152388 -1.15769213
O 6.37345042 4.59130075 6.68731209
O -2.25921108 6.16596479 8.15984168
Pu 3.70371677 0.81883075 -1.13428381
O 0.26827646 -1.59759666 -5.10126871
O -5.58952286 -3.47229757 5.91957836
Pu -1.03419962 0.90766627 -6.15332258
O 3.98967464 5.17971153 3.81693925
O 3.38222375 7.45348178 -5.09762621
Pu -10.89667500 1.93010678 5.97316469
O -9.70792437 3.55656327 6.16291562
O 12.87424777 3.72725710 -2.62302258
Pu -10.01850909 4.30628088 1.31363840
O 5.68765566 5.91787370 -1.92303359
O -3.17208074 4.45128507 5.56525758
Pu -8.98963247 0.36554140 0.47230430
O -9.59073122 3.90927624 3.23645520
O 1.06155649 -8.72162735 -5.78818489
Pu -9.67509424 -5.90116215 -1.38773060
O -2.29391772 -0.42957445 0.02661705
O 2.23975584 4.78333781 -9.47843508
Pu -1.55442432 -3.20285568 6.83067060
O 4.37354968 1.60930122 1.56314676
O -3.65273960 6.62380774 6.31465001
Pu -4.75523223 7.83441553 0.30003390
O -3.43569346 0.35897017 -5.61297082
O 6.64056921 4.81561441 3.22819455
Pu -0.88326288 8.85530813 4.54345197
O 0.51944776 4.34453533 9.70033900
O 8.03866344 2.57388356 2.70755797
Pu -5.73101601 -1.41687145 5.62987833
O 0.21026945 0.27147354 -10.33219460
O 4.84614884 2.99565721 -1.31098011
Pu 7.20324500 -1.09186100 -4.00110500
O 6.61722159 -5.34969477 -1.39695787
O -2.12876730 5.98478294 -6.13666222
Pu 2.02301816 -9.77940960 1.56347153
O 6.39723105 5.15401528 0.63821852
O 10.88059372 0.86792783 -1.78133598
Pu 9.46356298 3.55031122 1.41086355
O 7.36522354 -4.62038579 2.75809711
O -1.17329186 1.34819199 7.70570935
Pu -3.10103008 -1.55539183 -1.86311483
O -0.40521067 7.62155480 -7.10384586
O -0.70676423 -1.76092620 -12.25101861
Pu 1.88459857 6.71943985 -6.34667082
O -9.91517285 -4.87562299 -3.10310695
O -0.46967043 -12.00392734 -2.31483080
Pu 2.02298830 -2.64234290 -0.78949168
O -7.38558000 0.34775600 -0.89551100
O -4.89508047 -4.35688266 9.85424090
Pu 3.17468760 -9.76913207 -2.28324220
O 6.42727941 -4.42753623 -6.60288871
O -0.38641515 -4.70969418 -2.37819429
Pu 3.05206409 8.69335812 0.09622203
O 8.79046219 0.20175185 -3.56082818
O 3.65547815 -6.07898589 -6.73202464
Pu 2.62539945 -7.37440285 -4.99919493
O -4.19079096 4.49779290 -5.20505847
O -9.43807313 -0.38533262 -1.34413292
Pu -2.98217039 7.66072694 -2.57403416
O -0.98489897 -5.02272466 2.25364389
O 5.19457281 5.24506242 -7.90353664
Pu 5.00847172 -7.93987471 0.45724762
O 1.13568691 1.83916905 -5.03353431
O -3.38517754 3.66857384 0.32012131
Pu -4.36842097 1.02671241 -3.75907103
O 1.04502415 -4.53038842 -12.00017322
O -6.08528070 -7.53045223 -1.73505287
Pu 7.44222731 -2.98342488 5.84232580
O -4.53919500 -1.83531600 -7.15147300
O 6.77396970 -1.34084067 6.66821110
Pu 6.48834489 6.74969979 7.44585482
O -0.97450322 5.16904816 1.09534509
O -8.92836199 1.69686326 7.86201951
Pu 8.13766239 3.98592619 7.84293890
O -2.62830059 -9.08549818 -3.20160928
O -2.56011921 -2.15945952 9.35483042
Pu 6.00256366 4.00864513 -2.78618253
O -9.79972866 2.37975233 0.93555610
O -1.13328891 -4.21715515 -6.27553676
Pu -0.55865839 -3.27771449 3.19436191
O 7.21417386 -0.89010347 4.32639665
O -4.21485910 5.63806451 -1.77360557
Pu 2.83901149 -2.12226195 2.54244722
O 3.73912272 8.79232521 5.53566976
O 5.30817050 0.04551872 -2.51761793
Pu 3.05627734 2.15035949 3.18116798
O 2.65861786 -3.10740782 -6.95982808
O 8.82975513 3.53426301 9.56626637
Pu 0.93072947 -12.16901258 -1.02646666
O -7.33783043 1.69673754 2.60682619
O 0.07178512 -8.96265109 1.07326455
Pu -7.09280862 -8.34240655 -0.21340074
O -7.35554346 -0.68970691 -6.47725137
O 3.08216792 -3.72849019 1.24167748
Pu 6.56996377 -2.69268645 -7.63382026
O -4.12269672 -9.48146235 -4.81790403
O -0.86532600 -2.31311700 -1.15003600
Pu 5.88660991 -6.97659446 -2.84174027
O 7.37277571 -7.46408206 0.19152921
O -7.86934172 -4.97450499 3.28943605
Pu 3.39384900 4.64812700 -0.59715100
O -10.17205283 -1.83023924 -3.50058052
O -5.98091515 -4.06021687 1.61516516
Pu 0.09614966 -8.15229445 -7.51413974
O 6.41200828 -1.65647158 0.59846750
O -5.59797757 1.27543422 5.24091557
Pu -5.33222533 -4.07245879 7.98662220
O -2.45343802 -6.04024050 0.09840322
O 1.45792313 2.57435487 -9.03551339
Pu 5.99884895 3.04562587 1.64067267
O -6.85335762 -2.21812648 7.55052183
O 4.81330328 7.42273233 3.21721140
Pu -3.53448543 1.65702347 0.74834499
O 1.42881979 5.64699746 -0.85574853
O 0.32069870 -2.80524495 0.90459615
Pu 8.73302797 0.48131500 3.64005800
O 5.27584244 2.59353878 3.89537770
O -0.11505549 6.58035359 -4.94585601
Pu -4.54505100 -5.68957800 -0.33778600
O 1.52667779 -3.56872876 3.49734322
O -6.59357861 4.35636724 -1.67540930
Pu -1.93727475 -0.14014938 8.84640168
O -6.24487858 -1.69286512 3.40158257
O 8.87181107 -0.13222269 5.66703525
Pu 2.19839311 -0.98500276 -7.28099161
O 6.00026915 0.40634107 -5.62301190
O 2.72794203 -9.66901611 3.54212989
Pu 7.92415119 1.93482488 -5.08518449
O -3.52601343 -6.31870575 2.07503380
O -0.38695497 6.19206557 -10.00303705
Pu 3.27906824 7.36328335 7.10557667
O 6.11777436 0.57705549 8.81535849
O -1.78272281 -0.84637275 2.07254957
Pu 9.06873575 -4.23757946 -2.99223029
O -2.52692787 5.53351857 -3.04362139
O -2.50243995 0.42866122 -2.07653470
Pu -5.07940768 5.10141177 6.33708738
O -6.33334258 -5.38304225 6.89817025
O 1.30541433 7.37833775 1.08214696
Pu 5.94716077 -4.39904270 -4.56185102
O -0.46289197 -1.70662729 6.09012209
O -0.00563460 -0.88957269 9.03992414
Pu 4.37521168 7.20403134 -3.26435185
O -3.10191447 3.26916318 7.96689828
O -7.67426965 -6.15205262 -0.86571275
Pu 2.36289352 0.75791094 -9.92777769
O 2.05441699 -1.17158676 0.83606683
O -7.40009347 1.22447945 -3.36192679
Pu -0.53873405 -2.68633137 -3.70358918
O 6.83646316 7.98373905 5.78635673
O 9.47814502 4.20587657 3.24704919
Pu 8.03018095 4.49537699 4.52640869
O 11.97901593 -1.47735653 -0.39104231
O -2.26404078 1.67576546 10.27013386
Pu 2.62780267 -5.73543366 1.56860044
O -0.02074341 -6.55313029 -0.84190235
O -10.05197219 -0.17455609 5.87570164
Pu -7.24343642 3.07487621 7.65871650
O 8.42281324 5.88998138 7.57319663
O 1.91528459 0.83571633 -2.06609558
Pu 11.09391019 -1.08853146 -2.16680520
O 1.55907566 -2.49598957 -2.81753717
O -4.45736545 -0.01607309 1.95116233
Pu -7.44225843 -1.36970840 -2.17896348
O -5.05540177 -1.39075541 -3.59307480
O -2.49799187 3.17208712 -6.50870719
Pu -6.00648873 -1.41854264 1.28069057
O 4.35105888 -6.05478856 -1.52253302
O 8.87111065 3.65246474 6.07572708
Pu -9.71573201 0.15969318 -3.27189147
O 9.52236541 -5.44221830 -1.49440588
O 2.99890234 -1.06959209 -1.46037575
Pu -7.14627239 6.90861617 2.93125744
O -1.98198187 9.29296075 -3.24612977
O 2.11492146 -8.07952988 -1.78258979
Pu -3.03752150 -4.08340680 10.21669354
O -3.44019378 9.01529660 4.66255280
O 4.81223586 8.26019120 -1.52678945
Pu -9.14979428 -3.39257832 -4.08509162
O 11.13258518 2.75028674 0.87375575
O -9.41474844 1.85754655 4.78018929
Pu 3.64145136 3.83523779 -8.41564598
O -0.93306168 -5.66690542 7.92519089
O -4.31975012 -7.33766099 4.61316544
Pu -9.03904070 4.05102269 -3.92109055
O 3.06734644 -7.18833060 0.22773480
O 9.08857801 -1.92892321 2.59556186
Pu 1.16692667 -2.46470091 -11.33617417
O -3.98020392 7.63507718 -4.32391528
O -8.65492284 -3.75696285 6.00719028
Pu -1.69609765 3.26336351 9.33240882
O -4.54245690 -8.49719569 0.32455507
O -1.91310530 -2.17812190 -8.63393003
Pu -2.49314498 4.88037975 -1.08520492
O -1.97869527 10.50595371 3.38381599
O 4.34881270 3.99789634 -4.52905127
Pu -3.89823600 1.80798600 6.66007600
O -4.28950542 -3.93212700 -1.78566094
O -0.73197581 -0.54021905 -3.46233179
Pu -1.61648500 -7.62259300 2.58374000
O -1.52653888 -4.67956859 5.19801023
O -7.67558719 -0.39310347 5.70999417
Pu -0.33737447 2.30893268 5.82374240
O 1.00652303 -4.28089730 5.81360677
O 4.93206913 -7.50952932 2.56859206
Pu 2.84044518 -1.11144341 -3.61920515
O -7.09910419 3.45557295 5.49834981
O -5.61486536 -1.55437688 -0.88557284
Pu 7.13239322 0.79111152 6.75105880
O -4.24933169 5.64186921 1.56846806
O 5.04546000 -6.30408200 -4.41205900
Pu -7.51221500 1.60634500 4.71252900
O 1.51950695 1.38548688 4.56258353
O 6.68902703 -0.94940166 -8.52624081
Pu -8.86136427 -1.67689635 6.59720583
O -9.45202362 4.93723454 -2.25879931
O 8.63287825 -3.52361948 0.36982173
Pu 2.44266237 -5.92082602 -1.74065937
O 11.08180360 -2.92835278 2.11398226
O 6.91883286 -2.50147801 -5.33929189
Pu -1.34451772 8.19095852 -5.44478111
O 7.42026609 -2.83072116 -2.66226856
O -10.42722415 2.04056348 -2.70546957
Pu -3.94345411 7.19912954 4.18551210
O -1.29289233 7.53989039 5.91143276
O -0.08316518 -3.21554774 -9.91553543
Pu -5.82081849 -1.52513187 -5.50816935
O 3.54626874 -0.13705403 -5.72731102
O -3.18972328 -0.35044272 7.33225060
Pu -3.49318415 -10.20988136 0.14126312
O -3.76797399 6.77512508 -8.23449609
O -8.13768409 -3.17374122 -2.14646850
Pu -4.40106383 -8.43485845 -2.99185359
O 1.59477391 -4.78309109 -0.31789045
O -2.42984809 7.36416495 0.08580493
Pu -6.45022100 4.05277200 2.60396900
O -0.53766247 -8.24480662 -2.83619587
O -6.03154514 7.01190026 4.73161578
Pu 8.26067442 -5.65259238 0.60396854
O 4.33253234 2.38515181 -6.81494980
O -3.11152593 9.72664516 6.52837443
Pu -0.89779641 1.48593283 -2.34282136
O -2.47284605 -3.19571618 3.35093965
O 3.38858500 -1.25256400 6.07140600
Pu 5.43103915 8.63094261 4.64811832
O -7.98406600 5.23683200 3.29137000
O -4.01509355 8.87097606 -1.14607243
Pu -2.65668711 3.97617008 3.24787650
O 1.99102449 -7.66210916 2.45086519
O -7.93603783 -1.14578330 1.07490637
Pu -7.64480547 1.18538220 -5.91713124
O 6.88214843 3.58604833 -4.54080101
O -6.54606652 -9.16882288 1.89073418
Pu -7.79229997 -5.01193927 1.38709790
O -2.71349251 0.04924948 -9.92445847
O 7.55925618 -5.46249058 -3.77996551
Pu -1.07706949 -10.36037115 -3.22347759
O 2.67700278 5.64431534 7.98934961
O 0.28892936 -0.16323461 -7.29910864
Pu 0.28822722 -8.48878139 -0.87815830
O 3.70068799 -3.52498791 -1.55731337
O 6.38193186 -4.93357475 5.54437271
Pu 0.92014900 5.89921300 -2.97680800
O 9.19673688 -5.71500350 2.55718002
O 0.04149400 1.32116700 -0.19586600
Pu -3.12448522 11.26591214 5.08178482
O -1.93743119 -8.77729093 -7.74506754
O -2.65903622 -3.05396528 -3.13820193
Pu 6.32465950 7.57431579 -0.51872684
O 3.72232900 0.47978500 -8.10324800
O -2.86557090 8.25383328 -6.92907653
Pu -0.34880579 -0.76868595 0.32559827
O -2.82553968 -9.22390203 2.09951021
O -0.72038200 -7.65770490 4.33073007
Pu 5.69475521 4.54369872 -6.08844804
O -1.08698976 3.42819810 -0.92307163
O -5.19904362 4.80910886 4.30161807
Pu -0.62198786 -4.70950918 -0.19582649
O 7.28868765 2.46468372 -7.04512084
O -2.08488047 6.48278157 3.45457702
Pu 5.04176444 -1.08308659 4.65354604
O -4.24896941 -3.05143899 -5.33646064
O -7.79662588 3.78176331 -0.04005898
Pu -4.14839867 6.72315374 -6.06589146
O 3.58867608 3.07005278 7.30852779
O 1.15737005 7.02208460 6.18982110
Pu -7.23742681 -4.88619656 5.28882528
O 3.88022589 -8.52948869 -3.79877926
O -8.01149111 -0.96112274 -4.04489970
Pu 1.35153490 -1.45496409 7.39120313
O -5.20874095 5.16077648 -6.95450233
O 1.46174709 -6.02261502 -3.84965911
Pu -1.70317625 4.35114643 -4.89282643
O -8.86209766 -8.01754878 -0.83347234
O 3.33780140 5.20416708 -2.84010466
Pu -6.73434103 2.23851099 -1.62524240
O 7.90327453 8.18690724 -1.46252813
O -3.26695043 -4.17958893 7.78613616
Pu -5.01383000 -7.64580488 2.27021553
O -1.97310891 -10.18010328 -1.23104089
O -0.14068482 -3.29675253 8.27186323
Pu 10.50993934 -1.29290772 1.13000578
O 5.26964118 0.29352119 6.01877831
O -5.33019609 -9.87611749 -1.29473081
Pu 3.74481800 -4.65671403 -8.01033361
O -4.92878876 3.18734134 -3.25212809
O 5.11293085 -8.74890217 -1.55055617
Pu -5.19983306 -3.66940603 -3.81060996
O 1.43647280 -4.49399789 -9.07039075
O 8.89709809 -3.69074867 4.73447185
Pu 4.78374408 4.24895293 5.57300058
O 0.26463300 4.54107300 -4.36833200
O 3.27585173 -6.27845610 4.96748727
Pu -3.97736600 -5.20561700 3.92622900
O 7.08058652 2.59940722 0.03899340
O 3.22958432 -9.46442832 0.07546855
Pu -0.05652348 -3.62679071 -7.81456207
O -1.10531704 10.61046952 5.70467672
O -7.06484019 5.55186476 1.37611080
Pu 8.53557340 1.38212012 -1.09259161
O -1.18901415 -5.00801230 10.80009892
O 9.43745305 -0.55782867 -0.56583021
Pu 0.43218067 -4.83592658 9.53152544
O -2.65944753 -5.99254100 -7.92560871
O -3.72881142 -1.51210175 5.24032513
Pu -3.23245916 -0.86121114 3.49436526
O -1.59056242 2.41116109 -4.23353015
O 2.02577843 -4.18293021 8.58889557
Pu 10.36882172 -4.31490436 3.51650178
O -0.55322787 4.96089890 4.46664732
O 4.81746751 6.37071742 6.13473323
Pu -3.89378807 -4.57177564 -6.63871848
O 2.96701837 4.84683052 -6.45876648
O 0.70321523 -10.10729661 -2.16969145
Pu -1.26348615 -1.11881481 -10.44404671
O -1.86437298 -6.94063126 -5.27004107
O 9.89024910 3.07603997 -0.89186543
