420
ML-kMC step 500
Pu 1.53886500 5.73510600 4.30004400
O 2.48051544 0.72059996 7.74761652
O 4.85449309 -2.90221152 -3.83629112
Pu 2.79538400 3.00665000 -5.40479000
O -5.60785000 8.20134500 1.98939300
O 10.44942806 -2.71916330 -3.38691786
Pu -7.71924034 5.83457849 -0.66833898
O 2.89543643 -12.22842899 -1.93687827
O -7.09371600 -3.45905200 -4.81284000
Pu -4.21850774 3.52414009 -7.27433632
O 1.20480600 -6.83943700 6.45926600
O 5.05127015 7.34058647 8.48765565
Pu 5.60786264 -5.98620986 3.88369972
O 2.28542900 2.55746600 0.28308000
O 5.94649178 6.34025065 -4.83197050
Pu -1.22988700 5.53955800 6.45648400
O -5.99846400 0.67681700 -5.05936400
O -4.34697200 1.01176200 -1.52062300
Pu -5.37372900 5.30791100 -3.44588800
O 8.19026700 2.60766700 -2.72590200
O 4.20023100 -0.75159500 2.65110100
Pu 1.67480900 3.92463200 8.19814000
O -4.61853100 1.30337800 -8.11337200
O -6.28502774 7.42092665 -1.01274718
Pu 0.17888882 -5.69801277 -10.95713037
O 2.18578551 7.42630832 -2.69377434
O -5.48241403 2.50473911 8.01450117
Pu 5.80204661 -3.26799668 -1.07748886
O -1.45759451 2.77966421 1.92556975
O -0.65691648 3.37313209 7.59958694
Pu -0.58632500 7.07698200 1.43629000
O 4.77872480 -5.55728484 2.02479732
O 0.82225355 4.21209761 6.17137537
Pu -3.53586498 -0.46278795 -8.24248638
O 1.29111900 -6.59903700 -6.18452500
O 0.48378095 8.63845780 -4.92890782
Pu 0.29764600 3.11177300 0.67131700
O -1.86242891 4.48034273 -9.16907503
O 4.86443779 -3.15920027 4.03822452
Pu 0.06610689 4.51989280 -9.76490702
O -6.70024377 5.02970905 7.58289258
O 0.83307650 -1.76477171 -9.47258460
Pu -3.33997366 -7.90350034 -6.89023788
O -4.86284966 -6.30202044 -6.87659599
O -5.81770471 -5.67664465 4.23084690
Pu -0.60010729 -6.26119837 6.13953940
O 6.19140100 2.56585500 6.36241500
O 1.21735297 -11.98250671 0.89819952
Pu -2.73831474 8.20630942 7.57804809
O -2.09930670 2.28058756 4.94984024
O -9.57763352 6.07321353 0.81809974
Pu 5.78762800 0.85727000 -8.00512800
O 3.55699568 -6.71290698 8.16681495
O 0.28604270 7.63060702 3.52970456
Pu 4.42841590 0.96600911 8.08462278
O -4.08251594 -5.81893771 -3.67582799
O -9.61379954 -5.26630005 0.53135898
Pu 7.33917300 -2.89513300 1.89059500
O 1.54208897 3.69137679 3.10295670
O -1.00761700 7.76550900 -2.32306000
Pu 0.20782100 9.45264200 -2.49726400
O 5.02158922 8.68711427 1.29523489
O -6.29488900 -6.51767700 0.95464200
Pu -1.83894150 7.16009371 -8.89666155
O 4.19017900 6.96661300 0.14645300
O 4.28251600 1.86360200 -10.02003800
Pu 2.54317611 -8.04675753 4.55765299
O -4.75807672 2.43994467 2.55166559
O 1.64162347 9.92289763 -0.90205635
Pu 2.90226900 -5.26113500 6.83299200
O 2.79095958 -1.37129412 -11.23480417
O 0.46977226 -7.24482845 -9.35963772
Pu -9.03268340 5.07005619 5.08584058
O 9.62309600 0.67361400 1.92493900
O 5.07195471 -3.33045940 -8.78555411
Pu -0.88885454 -6.56040135 -3.94199488
O -8.43555591 6.94115675 5.07999894
O -7.84201000 5.66882600 -4.54487500
Pu 5.08312537 6.00451466 1.91230027
O 4.04050068 4.33553558 1.35781770
O -8.42743368 2.78627759 -5.20610805
Pu 12.04139089 2.88626441 -1.23290113
O 6.59289840 4.75450545 6.68846909
O -2.06700110 6.11923860 8.19302457
Pu 3.75838300 0.92697500 -0.90412500
O 0.28629900 -1.59193300 -5.12497600
O -5.60753450 -3.27348249 5.99628451
Pu -1.00927100 0.89982800 -5.82001000
O 3.98967464 5.17971153 3.81693925
O 3.39432422 7.78626822 -5.44019636
Pu -11.09337901 2.06031930 5.92087319
O -10.15127334 3.84913845 6.47696384
O 13.10121609 3.89183572 -2.78637220
Pu -10.07295204 4.23694042 1.38661740
O 5.79331358 5.87723818 -1.92223397
O -3.25345033 4.50487340 5.67071295
Pu -9.21076799 0.49440860 0.67882386
O -10.13899329 4.27121200 3.38370924
O 1.11267248 -8.73703235 -5.86615805
Pu -9.86674725 -6.05010274 -1.46402970
O -2.38188564 -0.15491486 0.05964858
O 2.33233743 4.74717004 -9.80116239
Pu -1.79966400 -3.11401300 6.80433200
O 4.48634905 1.77615978 1.56243862
O -3.65047383 6.59833263 6.58762658
Pu -4.75645800 7.83684600 0.30051600
O -3.53620866 0.42403090 -5.77091437
O 6.73677179 4.77820358 3.12042647
Pu -0.85891089 9.23699487 4.61728718
O 0.69894100 4.45239200 9.80417200
O 8.29501366 2.61378790 2.59231263
Pu -5.87397683 -1.34026052 5.69447522
O -0.00764992 0.36894011 -10.85919168
O 4.83371201 3.04394768 -1.10673988
Pu 7.20324500 -1.09186100 -4.00110500
O 6.74773691 -5.41091289 -1.43254561
O -2.36742649 6.18899539 -6.51931525
Pu 2.09623575 -10.13504994 1.62015185
O 6.39723105 5.15401528 0.63821852
O 11.51069957 0.80328288 -2.20253040
Pu 9.58072764 3.60301760 1.49586424
O 7.42268451 -4.75391771 2.78549571
O -1.17329186 1.34819199 7.70570935
Pu -3.10103008 -1.55539183 -1.86311483
O -0.36619700 8.03866243 -7.61422919
O -0.50376727 -1.65364115 -12.39886139
Pu 1.94813762 6.65843120 -6.38898559
O -10.04238068 -4.91437956 -3.17338237
O -0.37278467 -12.53537474 -2.45566141
Pu 2.02298830 -2.64234290 -0.78949168
O -7.38558000 0.34775600 -0.89551100
O -4.67960619 -4.36185699 9.81977164
Pu 3.31584500 -10.05104900 -2.20311800
O 6.44130302 -4.47876260 -6.95260425
O -0.14425900 -4.79461200 -2.31845200
Pu 3.05206409 8.69335812 0.09622203
O 8.82630679 0.17419499 -3.71746037
O 3.86120033 -6.57650278 -7.20277431
Pu 2.69797994 -7.39898618 -5.00717014
O -4.18191682 4.19282859 -5.36410877
O -9.67496031 -0.31717318 -1.44310436
Pu -3.08858314 7.93212445 -2.45940176
O -0.98489897 -5.02272466 2.25364389
O 5.19572908 5.19346028 -7.98806796
Pu 5.34705969 -8.40138250 0.46443823
O 1.10765200 1.89126000 -4.74326400
O -3.37965337 3.65681517 0.33519669
Pu -4.42049403 0.95702522 -3.80986634
O 1.48609100 -4.64355700 -12.01145800
O -6.03338956 -7.77823850 -2.00788370
Pu 7.62760500 -3.05744000 5.98803500
O -4.53919500 -1.83531600 -7.15147300
O 6.81450247 -1.55553509 6.87804586
Pu 6.61614400 6.76547700 7.54664000
O -0.91580242 4.93827717 1.01974312
O -9.17999705 2.10297053 8.23377931
Pu 8.23447052 4.00585866 7.93162346
O -2.85175000 -9.27874900 -3.22504000
O -2.53892300 -2.31971200 9.62493400
Pu 6.16731600 4.04708800 -2.70506500
O -10.02999223 2.38471208 0.92263347
O -1.09560100 -4.19992800 -6.24295100
Pu -0.52413900 -3.18415400 3.35520300
O 7.34815039 -0.80809114 4.46780516
O -4.18604600 5.94416900 -1.56651900
Pu 2.83901149 -2.12226195 2.54244722
O 3.75950368 8.92466339 5.88665093
O 5.18065700 0.26271100 -2.54444100
Pu 3.05640600 2.14955400 3.17947400
O 2.49766003 -3.12892734 -7.05463722
O 8.70897105 3.23351067 10.11675275
Pu 1.12950307 -12.24560028 -1.05050065
O -7.59529500 1.68277300 2.41328500
O 0.06168800 -9.00894300 1.35555000
Pu -7.00312143 -8.36802187 -0.03177883
O -7.62585671 -0.62406703 -6.55130346
O 3.04997579 -3.72638097 1.51311269
Pu 7.04215775 -2.93624813 -7.92391703
O -4.32664400 -9.92081800 -4.97600700
O -0.86532600 -2.31311700 -1.15003600
Pu 6.17884100 -7.26087800 -2.97865200
O 7.74299600 -7.77086400 0.24816000
O -8.35246468 -5.12386826 3.34874050
Pu 3.39384900 4.64812700 -0.59715100
O -10.31943565 -1.86200790 -3.50980359
O -5.99379116 -4.05098879 1.58260374
Pu 0.15180600 -8.09479100 -7.47176300
O 6.12517000 -1.75337000 0.62788200
O -5.52237083 1.15464348 5.49713754
Pu -5.39031779 -4.12604429 8.04911801
O -2.45312400 -6.38518600 0.14855300
O 1.57876900 2.60026600 -9.32952700
Pu 6.22853200 3.22405100 1.69602500
O -7.07150805 -2.04333833 7.60190138
O 4.86613900 7.39951000 3.20030900
Pu -3.52517100 1.56570200 0.61903500
O 1.54895002 5.38826928 -0.89864996
O 0.32069870 -2.80524495 0.90459615
Pu 8.83905304 0.49290065 3.68794541
O 5.22436800 2.62989700 4.09796700
O -0.01269768 6.48444994 -5.08597914
Pu -4.54505100 -5.68957800 -0.33778600
O 1.44623255 -3.32167940 3.41430598
O -6.59357861 4.35636724 -1.67540930
Pu -1.97539267 -0.12916604 9.08772977
O -5.82660200 -1.66053600 3.72189000
O 8.87181107 -0.13222269 5.66703525
Pu 2.33173800 -0.92628900 -7.14417100
O 6.71114496 0.36035296 -5.77843414
O 2.49793377 -9.87563000 3.81753108
Pu 8.25017218 2.08057034 -5.03875130
O -3.89738739 -6.50544140 1.70139252
O -0.54961036 6.31531960 -10.39343684
Pu 3.32580700 7.59555200 7.29557500
O 6.16104630 0.87721201 8.90128750
O -1.75420300 -0.86035700 2.09766900
Pu 9.28412811 -4.26054344 -3.07141968
O -2.58896846 5.59390988 -3.02275232
O -2.50243995 0.42866122 -2.07653470
Pu -5.35250300 5.04974900 6.24050500
O -6.55270517 -5.64493375 7.02201535
O 1.33798100 7.73328700 1.30393200
Pu 5.93029700 -4.35787700 -4.66670800
O -0.51125016 -1.75925917 6.15616939
O -0.15736600 -0.86257100 9.04014200
Pu 4.59359900 7.53863400 -3.70237100
O -2.70182446 2.89947919 7.81151098
O -7.92076100 -6.55456400 -0.86017600
Pu 2.26990786 0.66661943 -10.05930511
O 2.13578452 -1.25299304 0.79193967
O -7.50316238 1.23662647 -3.41480381
Pu -0.53902400 -2.68577400 -3.70563800
O 6.79441352 8.04623064 5.90883052
O 9.69182068 4.33148940 3.25097965
Pu 8.17167809 4.57491929 4.60616367
O 12.29081921 -1.45490648 -0.36182379
O -2.49321592 1.68957948 10.73395543
Pu 2.70574719 -5.79205885 1.50960709
O -0.16170400 -6.57155800 -0.79662600
O -10.56908705 -0.05307650 6.23206824
Pu -7.74299308 3.39171093 7.97117079
O 8.56494353 6.07841241 7.73553358
O 1.79431977 0.84500618 -2.29958731
Pu 11.09391019 -1.08853146 -2.16680520
O 1.29067301 -2.52560050 -2.98258913
O -4.39649676 -0.01216171 1.97273025
Pu -7.44225843 -1.36970840 -2.17896348
O -4.94326400 -1.53709500 -3.83304600
O -2.49058819 3.16329030 -6.52296770
Pu -6.00868200 -1.41283100 1.45033000
O 4.67374979 -5.93907810 -1.74331775
O 8.94081699 3.68825201 6.12015687
Pu -9.93863459 0.17779583 -3.35262297
O 9.79097588 -5.14715923 -1.09883011
O 3.02792631 -1.03073308 -1.45488735
Pu -7.25170362 7.17722753 3.00715902
O -1.96491200 9.40659000 -3.41178600
O 2.06261440 -8.44406702 -2.00900707
Pu -2.80062849 -4.07305594 10.33403652
O -3.47183059 9.09798333 4.70520704
O 5.02691316 8.66429223 -1.62521842
Pu -9.24989290 -3.42628477 -4.13695825
O 11.73047387 2.73740453 0.70145506
O -9.46248393 1.84944788 4.88390920
Pu 3.85476898 3.88481442 -8.50404552
O -0.94870700 -5.75269300 8.03225500
O -4.25895600 -7.08557300 4.61011600
Pu -9.10844994 4.12993069 -3.70155449
O 3.12525100 -7.38583100 0.17411500
O 9.25199029 -2.03910684 2.70959229
Pu 1.28656205 -2.41053753 -11.75195946
O -4.04803700 7.58085000 -4.29477400
O -8.62875680 -3.78557214 6.19814367
Pu -1.71852275 3.30817677 9.42639527
O -4.63030410 -8.66086658 0.33068137
O -2.02987332 -2.34942638 -8.81245031
Pu -2.42239193 4.94542019 -0.90639043
O -2.06880311 10.65577189 3.67762731
O 4.48590577 3.95042765 -4.41100645
Pu -3.89823600 1.80798600 6.66007600
O -4.49665800 -3.82564100 -1.26413000
O -0.97012762 -0.43678110 -3.60168490
Pu -1.61648500 -7.62259300 2.58374000
O -1.61242400 -4.54166000 5.02966100
O -7.82088590 -0.42364244 5.53838205
Pu -0.33737447 2.30893268 5.82374240
O 1.15607304 -3.97084721 6.11058887
O 4.99372955 -7.69638002 2.25521193
Pu 3.09604200 -1.06747100 -3.76488400
O -7.54049543 3.67799518 5.73029668
O -5.55113654 -1.36741011 -0.59141376
Pu 7.38752584 0.59276234 6.88302182
O -4.30953407 5.69127818 1.56309248
O 5.04546000 -6.30408200 -4.41205900
Pu -7.51221500 1.60634500 4.71252900
O 1.45195361 1.34867410 4.52940063
O 6.87505535 -0.81967083 -8.45511066
Pu -8.96913057 -1.69080880 6.66880930
O -9.72459138 5.25194674 -2.20664939
O 8.49139274 -3.62189809 0.47947166
Pu 2.42707500 -5.79945600 -2.17246700
O 11.43831981 -2.92205760 2.22796227
O 7.24087300 -2.72265300 -5.46299700
Pu -1.55761600 8.46516600 -5.73246000
O 7.37786880 -2.73359085 -2.69260486
O -10.34152333 2.05597802 -2.86388964
Pu -3.98448427 7.24504441 4.17711934
O -1.22203403 8.04611337 6.09721470
O -0.18673972 -3.49610326 -10.47257031
Pu -5.80605700 -1.40570500 -5.73121500
O 3.47601400 -0.16866400 -5.65721700
O -3.42407512 -0.20003186 7.36308471
Pu -3.45528504 -10.32787332 0.14031607
O -3.72146276 7.61648279 -8.80674629
O -8.13768409 -3.17374122 -2.14646850
Pu -4.72356029 -8.81360351 -3.11920330
O 1.67133513 -4.82787158 -0.48908872
O -2.32030500 7.46606100 0.11967100
Pu -6.45022100 4.05277200 2.60396900
O -0.40135193 -8.41059208 -3.03936033
O -5.86692000 6.94305700 4.96383200
Pu 8.58930642 -6.00455218 0.73154821
O 4.29238100 2.64855400 -7.02112600
O -3.69024360 9.86901496 7.13340262
Pu -0.89779641 1.48593283 -2.34282136
O -2.86755800 -2.74417400 3.17728800
O 3.38858500 -1.25256400 6.07140600
Pu 5.43103915 8.63094261 4.64811832
O -7.98406600 5.23683200 3.29137000
O -4.16594251 9.04200202 -1.22261020
Pu -2.56835100 4.15679900 2.99260200
O 2.03965600 -7.84028500 2.34402600
O -8.18863000 -1.32719000 1.16384700
Pu -7.64480547 1.18538220 -5.91713124
O 6.90103500 3.63199600 -4.92654700
O -6.56325200 -9.28934375 2.05484440
Pu -7.79229997 -5.01193927 1.38709790
O -2.66401465 -0.00864330 -10.03448221
O 7.61413120 -5.53110342 -3.77360710
Pu -1.10596563 -10.63440281 -3.30895312
O 2.73123673 5.85805641 7.92450144
O 0.30302755 -0.15912951 -7.31148075
Pu 0.38019600 -8.39817800 -0.90287500
O 3.87609276 -3.47669209 -1.79100185
O 6.62908421 -4.88211216 5.54380910
Pu 0.92014900 5.89921300 -2.97680800
O 9.93622778 -6.11014858 2.68628119
O 0.04149400 1.32116700 -0.19586600
Pu -3.07132091 11.06853750 5.25646077
O -1.69905334 -8.65742367 -7.73227748
O -2.65108658 -3.09572512 -3.16798449
Pu 6.54376335 7.78786132 -0.53064240
O 3.72232900 0.47978500 -8.10324800
O -2.98316342 8.66378837 -6.99564910
Pu -0.44114900 -0.59034000 0.06839300
O -2.87728500 -9.44218800 2.22557100
O -0.85243500 -7.62135000 4.39103100
Pu 5.87682000 4.75980300 -6.25734900
O -1.08698976 3.42819810 -0.92307163
O -5.04629787 4.83026137 4.09048145
Pu -0.87077900 -4.69125300 -0.08285600
O 7.63843511 2.45323916 -7.00818382
O -2.26949540 6.42711511 3.66370220
Pu 5.04538522 -1.23489594 4.53673685
O -4.28182800 -3.12233400 -5.43859100
O -8.01151953 3.80406105 -0.01981725
Pu -4.49775600 7.28726495 -6.56772854
O 3.58292342 3.22017454 7.39281568
O 1.13668400 7.11776100 6.33667600
Pu -7.35788424 -4.96956095 5.36933326
O 3.95720818 -8.50328526 -3.68373165
O -8.08445200 -1.12050000 -3.95711400
Pu 1.35153490 -1.45496409 7.39120313
O -5.54309600 5.64538000 -7.03414500
O 1.46174709 -6.02261502 -3.84965911
Pu -1.81060700 4.46235000 -4.96477100
O -8.97844211 -8.47922941 -0.47359304
O 2.97629842 5.16333213 -2.69269924
Pu -6.73569600 2.45404600 -1.62288200
O 8.04619230 8.35652451 -1.78353349
O -3.27271100 -4.27315900 7.92893900
Pu -5.15922146 -8.04024288 2.55628335
O -1.90109268 -10.65199917 -1.16365170
O -0.14419264 -3.35725569 8.38620388
Pu 11.00473631 -1.41620171 1.10657748
O 5.32152277 0.23352184 6.27036099
O -5.20871295 -9.82322499 -1.46689119
Pu 3.86461100 -4.85372200 -8.15456700
O -4.92878876 3.18734134 -3.25212809
O 5.13721097 -8.76986933 -1.56101452
Pu -5.21136989 -3.67999609 -3.77740508
O 1.56297900 -4.64402900 -9.25105600
O 8.98905300 -3.88005100 4.81915100
Pu 4.78374408 4.24895293 5.57300058
O 0.26463300 4.54107300 -4.36833200
O 3.27585173 -6.27845610 4.96748727
Pu -3.97736600 -5.20561700 3.92622900
O 6.95058227 2.49481866 -0.06819546
O 3.32786811 -10.11597636 0.15046975
Pu -0.07337264 -3.21743049 -7.96822133
O -1.08433517 10.93251577 5.75427702
O -7.12413800 5.59206200 1.48259700
Pu 8.58876737 1.42438233 -1.06400708
O -1.08677517 -4.85523393 10.93927807
O 9.92757867 -0.37250661 -0.47056764
Pu 0.44035200 -4.94986900 9.58850400
O -2.92740192 -5.86439674 -8.08649509
O -3.93606900 -1.51681700 5.52390600
Pu -3.22592100 -0.89129900 3.63100600
O -1.36640300 2.47646000 -4.18161600
O 2.03160800 -4.19862700 8.59257900
Pu 10.32674040 -4.25234556 3.50031247
O -0.55322787 4.96089890 4.46664732
O 4.98558780 6.28517660 5.97640249
Pu -3.78293180 -4.52302583 -6.68109215
O 2.96997783 4.99244889 -6.31752227
O 0.61043517 -10.35998971 -2.18458296
Pu -1.31981691 -1.17088433 -10.73761801
O -1.81269538 -7.09861759 -5.69761730
O 10.15720800 3.20349000 -0.87164300
