420
ML-kMC step 500
Pu 1.50191433 5.75105573 4.19124475
O 2.52001852 0.56503318 7.90774171
O 4.83198924 -2.82293242 -3.82022523
Pu 2.83636658 3.10803569 -5.21367693
O -5.53268207 8.16365759 2.15599236
O 10.00842807 -2.32894113 -3.03064321
Pu -7.90403800 6.00035400 -0.28430400
O 2.91365868 -11.80217777 -1.99906839
O -7.00984159 -3.40299830 -4.90037519
Pu -4.19055120 3.70918549 -7.44501144
O 1.22957055 -7.14253054 6.35383696
O 5.03444180 7.46635959 8.59313404
Pu 5.85479755 -5.98414795 3.59457813
O 2.28542900 2.55746600 0.28308000
O 5.57191985 6.18314742 -4.98299572
Pu -1.22351851 5.48514824 6.38263392
O -5.98921170 0.62544111 -5.07951127
O -4.19817552 1.20283341 -1.43565750
Pu -5.37407352 5.30488283 -3.45168625
O 8.06613241 2.60485449 -2.70490105
O 4.21015506 -0.74669297 2.64940579
Pu 1.66618755 3.89964529 8.12109218
O -4.63107815 1.33120835 -8.24403685
O -6.29502661 7.41305167 -0.98268563
Pu 0.35679911 -5.63988373 -10.52376962
O 2.09068502 7.55711579 -2.48450885
O -5.66141152 2.71581743 7.94979730
Pu 5.71160121 -3.39992627 -1.09145197
O -1.28160062 2.93823298 1.86403954
O -0.51854331 3.55702692 7.85919133
Pu -0.63001693 7.06926639 1.31407638
O 4.75757345 -5.56589408 1.91387437
O 0.83534657 4.03665110 5.85943368
Pu -3.49443870 -0.33461264 -8.24204419
O 1.27769746 -6.54265700 -6.15238795
O 0.48903931 8.70552315 -5.15411870
Pu 0.28828061 3.08995654 0.70352736
O -2.04320619 4.49286821 -9.31905375
O 4.66144811 -3.23017265 3.91191794
Pu 0.02634823 4.26779140 -9.64126160
O -6.74284160 5.11612122 7.58375233
O 0.54930763 -1.63265481 -9.37842583
Pu -3.45539932 -7.80037186 -6.84597746
O -4.95881318 -6.07087926 -6.91273200
O -5.78107013 -5.37610475 4.04898819
Pu -0.82812345 -6.44166598 5.96142896
O 6.18557777 2.57797494 6.36280377
O 1.40373877 -11.89771737 0.96844154
Pu -2.61783047 8.07455661 7.61444827
O -2.01974246 2.24405318 4.93988820
O -9.43708179 6.06263911 1.00153907
Pu 5.60210639 0.92431987 -7.68546999
O 3.33052972 -6.45273892 8.20753335
O 0.40482833 7.49032173 3.42816675
Pu 4.48184598 0.73084959 7.89944926
O -4.23888854 -5.87800623 -3.46222518
O -9.61590790 -5.07945661 0.27199271
Pu 7.34128933 -2.86432454 1.89862862
O 1.38860844 3.64539143 3.13889124
O -1.00761700 7.76550900 -2.32306000
Pu 0.14043796 9.36437208 -2.55125477
O 4.88511758 8.72764653 1.39055641
O -6.21347242 -6.53828347 1.29461113
Pu -1.80466870 7.06661837 -8.88388650
O 4.10032935 6.80294335 0.02754925
O 4.24125494 2.04396689 -9.88404567
Pu 2.48495921 -8.06193351 4.81481829
O -4.74779600 2.55029200 2.45949500
O 1.61593078 9.45128319 -0.76421292
Pu 2.63097358 -5.07417582 6.60287724
O 2.82443458 -1.11724451 -10.73138783
O 0.83808782 -7.05391247 -9.10801075
Pu -9.15906559 5.08560355 5.06804500
O 9.68808962 0.70128089 1.88164393
O 4.99432396 -3.24656109 -8.49718531
Pu -0.65299768 -6.45129642 -3.98561306
O -8.34334600 6.85967400 4.96659131
O -7.13890716 5.33847606 -4.34839490
Pu 5.03182482 6.07538606 1.81561988
O 4.05089500 4.33836000 1.39865000
O -8.42325781 2.90718474 -5.35237440
Pu 11.85742590 2.76843201 -1.36693333
O 6.62322885 4.95157190 6.77902535
O -1.99421202 6.02389150 8.24653916
Pu 3.90313493 1.05457743 -0.91899515
O 0.28629900 -1.59193300 -5.12497600
O -5.93423029 -3.40093649 6.26150641
Pu -1.00927100 0.89982800 -5.82001000
O 4.17745390 5.27643372 3.69133399
O 3.34171507 7.70796156 -5.31573705
Pu -10.58835011 2.09067471 6.40913908
O -10.41168575 4.12708385 6.47391344
O 12.95163988 3.94497336 -2.52850118
Pu -9.90129625 4.22389330 1.45190339
O 5.69047579 6.05523308 -1.83448653
O -3.16648668 4.32603494 5.51435570
Pu -9.15992892 0.37982560 0.56940313
O -10.20089742 4.46815649 3.50902391
O 1.18664117 -8.84280742 -5.78099530
Pu -9.38066838 -6.24269099 -1.27188747
O -2.38053000 -0.17151537 -0.16817894
O 2.17435238 4.70218716 -9.82302637
Pu -1.86609683 -3.11598293 6.80464207
O 4.50186298 1.98382948 1.79206564
O -3.63594208 6.59416887 6.52307945
Pu -4.71401745 7.72109313 0.36059313
O -3.60798500 0.59314600 -5.60120500
O 6.73307923 4.65153041 3.32953940
Pu -0.93083986 8.90764588 4.34379524
O 0.65551908 4.59650186 9.71372981
O 8.27999702 2.69229997 2.69935902
Pu -5.86709426 -1.30518300 5.62222817
O 0.21841548 0.68492901 -10.51891180
O 4.88133900 3.14307909 -1.16500717
Pu 7.17499089 -1.07081436 -3.97371544
O 6.83865310 -5.67742694 -1.43392581
O -2.28952233 6.15958860 -6.45650803
Pu 2.08118527 -10.14683237 1.76389644
O 6.46824592 5.30073286 0.72929137
O 11.22408314 0.92632349 -2.42506005
Pu 9.73998270 3.56433206 1.52426601
O 7.75373398 -4.84072990 2.75928939
O -1.31142724 1.18921982 7.77909497
Pu -3.34750400 -1.57964900 -1.81020800
O -0.53590963 7.51524726 -7.39954696
O -0.34229512 -1.70459051 -12.39467258
Pu 1.76998532 6.99087802 -6.21371758
O -10.13976635 -4.89405543 -2.98539140
O -0.25452568 -12.83522363 -2.16934148
Pu 2.30476011 -2.64529598 -1.43062977
O -7.36611575 0.36982608 -0.88411105
O -4.77601158 -4.24248419 10.01534322
Pu 3.28756498 -9.91994363 -2.33892971
O 6.20906485 -4.34990724 -6.60107905
O -0.14425900 -4.79461200 -2.31845200
Pu 3.12205992 8.51088596 0.06517748
O 8.62407290 0.22146142 -3.46881756
O 3.93831502 -6.50433140 -6.93726071
Pu 2.59443079 -7.55856298 -5.15546545
O -4.26069240 4.17563135 -5.44925961
O -9.94989908 -0.26183165 -1.35788271
Pu -3.23387079 7.83929161 -2.59176511
O -1.01872190 -5.06501907 2.10929497
O 5.04165805 5.18517327 -7.92041546
Pu 5.16903919 -8.31399012 0.30468455
O 1.10727547 1.89096025 -4.74318728
O -3.21764273 3.42872336 0.38903012
Pu -4.20782854 1.10718881 -3.82806376
O 1.63079194 -4.53470388 -12.03413220
O -5.92390707 -7.79045503 -2.11744855
Pu 7.66302903 -3.01874902 5.93275358
O -4.53919500 -1.83531600 -7.15147300
O 6.90487558 -1.44383785 6.82011908
Pu 6.70858328 6.99304304 7.69069361
O -0.83493400 4.95871100 1.13822300
O -9.02619876 2.14666128 7.68841985
Pu 8.28549070 4.05653105 8.13082811
O -2.58311396 -9.08254649 -3.06928599
O -2.55090654 -2.12420505 9.67900327
Pu 6.06409256 4.06375902 -2.79947743
O -10.25561321 2.23069440 1.02528744
O -1.23898838 -3.91395324 -6.67949102
Pu -0.76647340 -3.24671294 3.37132327
O 7.47432605 -0.77899910 4.46506974
O -4.18396007 5.94244286 -1.56847134
Pu 2.88538417 -2.15664191 2.46065826
O 3.66702696 8.78410620 5.81151317
O 5.21685967 0.31098397 -2.63773091
Pu 3.07936584 2.50749902 3.26357530
O 2.41150534 -3.07419138 -7.09745193
O 8.12279316 3.16703810 9.82863036
Pu 1.14160654 -12.18280053 -1.05625032
O -7.26745450 1.80189728 2.41630289
O 0.12144055 -9.00907881 1.25665039
Pu -6.85155343 -8.39314983 0.03057727
O -7.66657697 -0.62051920 -6.51442984
O 2.78749654 -3.94038013 1.71167429
Pu 6.98534011 -2.73584763 -7.64152478
O -4.36876957 -9.72503778 -4.89732989
O -0.86532600 -2.31311700 -1.15003600
Pu 6.01764517 -7.00357519 -2.91143211
O 7.36458941 -7.51270272 0.09977398
O -8.20794980 -4.85988833 3.23806731
Pu 3.41177900 4.68465509 -0.60288017
O -10.46324669 -2.00667941 -3.62834003
O -6.10866600 -3.91775471 1.30716691
Pu 0.07502721 -7.99269138 -7.30969538
O 6.09876489 -1.72343618 0.63699660
O -5.54336072 1.44973199 5.03015981
Pu -5.48882608 -4.16798925 8.12461349
O -2.42653272 -6.38511367 0.15477041
O 1.58834199 2.55419998 -9.32072031
Pu 6.25133244 3.17297523 1.77544524
O -7.25779390 -1.98498146 7.75601735
O 4.86356649 7.40278599 3.19567973
Pu -3.52391535 1.51265879 0.60268368
O 1.30846948 5.01575244 -1.01030245
O 0.64548543 -3.42124140 0.77228010
Pu 8.92529262 0.38710288 3.77699583
O 5.22436800 2.62989700 4.09796700
O 0.10468363 6.53802226 -4.97727930
Pu -4.55026060 -5.67731894 -0.30957681
O 1.37652735 -3.61144164 3.35961334
O -6.85634062 4.45416148 -1.73163856
Pu -1.89709260 -0.20483216 9.15421145
O -6.28653337 -1.53366577 3.66554863
O 9.15655509 0.16834368 5.94659256
Pu 2.32946476 -0.90479563 -7.18318818
O 6.93965292 0.38232018 -5.80927129
O 2.56309629 -9.92163640 3.66591552
Pu 8.27061465 2.23260640 -5.06811195
O -3.93374039 -6.34271794 2.06384761
O -0.44564256 6.10228240 -10.08006847
Pu 3.32650556 7.47883548 7.20212693
O 6.18714591 0.75670079 8.87162518
O -1.53874643 -1.03084232 1.76662826
Pu 9.01711997 -4.18824459 -2.91884427
O -2.61777096 5.49902814 -2.92605015
O -2.46963303 0.34188235 -2.12894972
Pu -5.29840460 5.12167233 6.15000738
O -6.50414531 -5.74950216 7.28984354
O 1.41255924 7.19456679 0.92921675
Pu 5.92783298 -4.36379469 -4.66832021
O -0.54066676 -1.80589740 6.25878103
O -0.03656051 -0.68297827 9.17900169
Pu 4.35150299 7.25376352 -3.61329261
O -2.73483101 2.92044937 7.77144213
O -7.27534879 -6.27475504 -0.74676740
Pu 2.26075902 0.80609278 -10.15305807
O 1.92680502 -1.35576686 0.99327751
O -7.31840515 1.30981385 -3.06766060
Pu -0.58401700 -2.70484270 -3.73457047
O 6.93098890 8.45043504 6.08772286
O 9.74956679 4.47873010 3.25246371
Pu 8.07348971 4.73094738 4.69850290
O 11.99254569 -1.73549806 -0.54664256
O -2.53315515 1.59535295 10.13262215
Pu 2.44999877 -5.95323809 1.64721148
O -0.16170400 -6.57155800 -0.79662600
O -10.38940113 -0.14412070 6.46466865
Pu -7.63516549 3.47221769 8.19376697
O 8.46720620 5.99495657 7.70851251
O 2.09299300 1.20672200 -2.31973000
Pu 11.10294513 -0.99516687 -2.14373875
O 1.12864374 -2.39092589 -2.93749479
O -4.23835303 -0.66065279 1.71509835
Pu -7.39935975 -1.44210938 -1.87133854
O -4.98274426 -1.50579168 -3.83933877
O -2.36630256 3.12891727 -6.69265703
Pu -5.99379511 -1.45002997 1.45597359
O 4.45315300 -5.90718600 -1.63960100
O 8.82840696 3.66906211 6.19500173
Pu -10.00167802 0.22634481 -3.25585372
O 9.56446520 -5.28152392 -1.29678100
O 3.52667074 -1.13315187 -1.39458485
Pu -7.12591462 7.16501951 3.06757939
O -1.96491200 9.40659000 -3.41178600
O 1.93785348 -8.38094887 -2.27909559
Pu -2.82360219 -4.03441679 10.08978396
O -3.38242863 9.11706734 4.62832571
O 4.93989774 8.68443971 -1.63802557
Pu -9.09544454 -3.34016616 -3.96849291
O 11.70225169 2.48821225 0.53430969
O -9.55984102 1.75440345 4.79281952
Pu 3.79970610 3.98225980 -8.80513151
O -1.02067049 -5.68443566 7.82088865
O -4.17588557 -6.95209129 4.37880963
Pu -8.95128979 4.11358573 -3.84109948
O 3.13407670 -7.37282269 0.14988651
O 9.06689932 -2.24103525 2.67965201
Pu 1.37072934 -2.47072507 -11.60554203
O -4.01972540 7.62411935 -4.34119061
O -8.89629109 -3.92663386 6.14622045
Pu -1.70517901 3.31726032 9.46222457
O -4.63477345 -8.72316369 0.35515292
O -1.77732217 -2.25733278 -8.64905710
Pu -2.47838555 4.89733219 -0.95327798
O -1.97017301 10.73811024 3.49360178
O 4.58191418 4.00014478 -4.36166969
Pu -4.06220576 1.72244254 6.77434830
O -4.52927407 -3.80994067 -1.32839611
O -1.31834036 -0.87192563 -3.74102342
Pu -1.57218313 -7.52106504 2.38707384
O -1.61189253 -4.53791984 5.02665155
O -7.68209980 -0.51598749 5.51713773
Pu -0.27486686 2.26693731 5.74203437
O 0.95331019 -3.68207264 6.27942233
O 5.28884163 -7.77446897 2.26586169
Pu 3.09604200 -1.06747100 -3.76488400
O -7.49884934 3.71637416 5.56251912
O -5.56134041 -1.45305162 -0.71733991
Pu 7.43955111 0.56823734 6.78690718
O -4.55156279 6.04281383 1.72097940
O 4.96901098 -6.22823664 -4.60087072
Pu -7.51640250 1.70051001 4.71737544
O 1.36246015 1.28956716 4.32403604
O 6.65302223 -0.79781597 -8.19488857
Pu -9.00256324 -1.71977411 6.62265901
O -9.25886178 5.15815066 -2.20294455
O 8.45573629 -3.64112470 0.55443619
Pu 2.42707500 -5.79945600 -2.17246700
O 11.49318808 -2.99196369 2.22757699
O 7.23364586 -2.72841899 -5.45542579
Pu -1.33082852 8.16771770 -5.65715613
O 7.29084542 -2.85562979 -2.55165948
O -10.03425633 2.18442863 -2.98515522
Pu -3.97971429 7.37829394 4.12224071
O -1.45407333 7.85764956 5.95370663
O -0.35677836 -3.72216635 -10.69990235
Pu -5.89046173 -1.46464058 -5.74817342
O 3.47615985 -0.16941809 -5.65734186
O -3.69305551 -0.38200416 7.34848366
Pu -3.53595814 -10.28131583 0.21789074
O -3.75396187 7.50070277 -9.14621045
O -8.15412122 -3.23720266 -2.19143012
Pu -4.74190964 -8.92208428 -3.20652158
O 1.46257359 -4.31102322 -0.89323730
O -2.28741765 7.48039448 0.11132894
Pu -6.38410117 4.14421886 2.51699780
O -0.18267600 -8.40273100 -3.11524200
O -5.78547984 6.93663376 4.66164233
Pu 8.53474767 -6.04214876 0.57357356
O 4.30357139 2.64010829 -7.01185968
O -3.48489304 9.80757610 7.31172847
Pu -0.46259936 0.80387578 -2.52984010
O -2.70656235 -2.69187578 3.22531852
O 3.35857154 -1.27443337 6.11605915
Pu 5.43945102 8.63216433 4.61979234
O -7.90888637 5.22837168 3.34771619
O -4.19939792 9.09945441 -1.40218762
Pu -2.51425260 4.22872233 2.90210438
O 2.13084639 -7.72096216 2.62492607
O -8.17666869 -1.33083927 1.18517492
Pu -7.63885870 1.19979209 -5.89753913
O 6.93893205 3.77173023 -5.01512868
O -6.51940779 -9.33552598 2.07651793
Pu -7.85422747 -4.79352481 1.37029941
O -2.68494204 -0.03211292 -10.00165408
O 7.63218456 -5.56782464 -3.69055996
Pu -1.14937004 -10.36832919 -3.24442643
O 2.75616530 5.78518839 7.99004360
O 0.37884500 -0.25305600 -7.36722500
Pu 0.38019600 -8.39817800 -0.90287500
O 3.98782294 -3.49782290 -1.91188701
O 6.53775659 -4.61840054 5.31792489
Pu 0.96935591 5.67677582 -2.82673651
O 9.74956643 -5.73547666 2.30123542
O 0.63373404 1.33081838 -0.71269430
Pu -3.28716186 10.99027773 5.28654615
O -1.74397999 -8.52603266 -7.69076522
O -2.89183639 -3.24609827 -2.97478720
Pu 6.43738930 8.03545378 -0.42661662
O 3.66654588 0.40184760 -8.04746123
O -2.89704007 8.66302593 -6.77285383
Pu -0.43370469 -0.63609655 0.08337748
O -2.75528355 -9.12265635 2.16125455
O -0.81894024 -7.67252606 4.38175271
Pu 5.87682000 4.75980300 -6.25734900
O -1.16139855 3.44571469 -1.14254730
O -5.25806860 4.81466533 4.05777238
Pu -0.87077900 -4.69125300 -0.08285600
O 7.41666161 2.40582158 -6.88834159
O -2.37241127 6.57676006 3.49590313
Pu 5.00583508 -1.18913564 4.55401491
O -4.27903629 -3.13081985 -5.46121042
O -8.03978421 3.82517133 -0.02051695
Pu -4.43505396 7.38426101 -6.60283422
O 3.36196476 2.82892841 7.30705945
O 1.01527893 6.91204327 6.05631977
Pu -7.32572755 -4.88497931 5.42503216
O 4.06249520 -8.68038516 -3.67444889
O -8.02366559 -0.99966030 -3.87524156
Pu 1.49511404 -1.41535856 7.39828649
O -5.58382596 5.76183001 -7.32972835
O 1.35564400 -6.27848300 -3.86155100
Pu -1.81060700 4.46235000 -4.96477100
O -8.91265919 -8.40791554 -0.34907528
O 2.99223633 5.15699470 -2.79805714
Pu -6.54215499 2.43706485 -1.35014461
O 8.06399104 8.24822343 -1.45290410
O -3.29206129 -4.24593535 7.94270981
Pu -5.07025199 -8.10122903 2.57432685
O -1.95614441 -10.35174643 -1.05395572
O -0.19463556 -3.35657877 8.25590805
Pu 10.90067310 -1.34701003 1.10270938
O 5.39134968 0.16455017 5.89466351
O -5.18735276 -9.84180348 -1.43226691
Pu 3.77976531 -4.80543093 -8.00422127
O -5.04159221 3.25871035 -3.20953389
O 5.06489827 -8.95144995 -1.53088754
Pu -5.10968129 -3.81519785 -3.71641242
O 1.40756742 -4.47821001 -9.21671309
O 9.02188840 -3.84873686 4.76291115
Pu 4.87316000 4.05304200 5.79443000
O 0.26407053 4.54135770 -4.36817259
O 3.53113192 -6.33327040 4.92177896
Pu -3.80634116 -4.99737429 3.90353865
O 7.06304478 2.47809529 -0.12836230
O 3.43180001 -9.81637244 0.15958766
Pu 0.06098311 -3.06536294 -8.07095860
O -1.41580253 10.42453808 5.69016982
O -7.12806453 5.58961531 1.48688433
Pu 8.40581586 1.30282923 -1.03547474
O -1.04203928 -4.77249528 10.91680138
O 10.09097206 -0.30900967 -0.50773111
Pu 0.35509532 -4.88378337 9.43304462
O -2.88499408 -5.67857124 -8.02887999
O -3.92124825 -1.54905180 5.50429858
Pu -0.91751013 0.90168121 3.12498729
O -1.48063054 2.03736651 -3.92235582
O 2.02936032 -4.18749228 8.60568540
Pu 10.26499446 -4.10185133 3.27920124
O -0.38639767 5.19514073 3.94337975
O 5.08219775 6.42846651 6.12370206
Pu -3.75362177 -4.37054556 -6.92335647
O 3.00999543 5.05971487 -6.45116639
O 0.50280072 -10.24934499 -2.06813115
Pu -1.17655303 -1.11500242 -10.62066444
O -1.86727265 -6.92840037 -5.87782029
O 9.74128202 2.95896716 -0.76284680
