420
ML-kMC step 500
Pu 1.53886500 5.73510600 4.30004400
O 2.48087367 0.72267767 7.75618959
O 4.83322597 -2.80641484 -3.81299741
Pu 2.79538400 3.00665000 -5.40479000
O -5.60785000 8.20134500 1.98939300
O 10.50352292 -2.77167035 -3.26345887
Pu -7.90403800 6.00035400 -0.28430400
O 3.09886248 -11.91934390 -1.91748627
O -7.08252572 -3.53812215 -4.79430657
Pu -4.24781823 3.56356328 -7.37252994
O 1.14521185 -6.71558884 6.46660244
O 5.06708502 7.35845132 8.51443005
Pu 5.57493034 -5.81172709 3.90919321
O 2.37709978 2.59610474 0.24063979
O 5.54075717 6.17371500 -4.85409096
Pu -1.22988700 5.53955800 6.45648400
O -5.90628428 0.61571825 -5.19565345
O -4.20960376 1.16048059 -1.44101422
Pu -5.24646975 5.29525665 -3.43168200
O 8.11123931 2.69082249 -2.64696430
O 4.20023100 -0.75159500 2.65110100
Pu 1.67748767 3.93037867 8.19847559
O -4.53639099 1.30790633 -7.85107698
O -6.06483698 7.23631263 -1.04230939
Pu 0.20116759 -5.55466947 -10.65978619
O 2.12840419 7.80319665 -2.79575852
O -5.72381195 2.78571426 8.02005484
Pu 5.79972302 -3.26793980 -1.09649915
O -1.25494884 2.87938685 1.89381503
O -0.51268340 3.49570201 7.93224937
Pu -0.61511247 7.00546512 1.42777941
O 4.74073298 -5.57695808 1.92282088
O 0.77858758 4.16790536 6.06835266
Pu -3.63866000 -0.52157900 -8.42978200
O 1.29111900 -6.59903700 -6.18452500
O 0.57590059 8.78422085 -5.06466026
Pu 0.29764600 3.11177300 0.67131700
O -2.05816844 4.24563214 -9.26004141
O 4.66789811 -3.22825915 3.94380232
Pu 0.04442194 4.49596286 -9.69967965
O -6.70309892 5.15400253 7.64415049
O 0.73353037 -1.87575608 -9.74654739
Pu -3.50873432 -7.95002651 -6.85745319
O -4.97084812 -6.41496499 -6.94448952
O -5.84777708 -5.69680908 4.27742967
Pu -0.89610233 -6.35406635 5.94893351
O 6.19140100 2.56585500 6.36241500
O 1.24914141 -11.88233160 1.05812059
Pu -2.71837899 8.19616562 7.55437049
O -2.13106655 2.25321434 4.94879133
O -9.43837423 6.25009146 0.93370461
Pu 5.77015055 0.83574636 -8.02970441
O 3.54254082 -7.01741369 7.87963502
O 0.44177900 7.47437200 3.53696600
Pu 4.54468300 0.78074700 7.86967000
O -4.32451447 -5.78808988 -3.49364334
O -9.67034207 -5.30936804 0.30274880
Pu 7.33917300 -2.89513300 1.89059500
O 1.57099228 3.76022376 3.11160236
O -0.94836974 7.74971806 -2.33708664
Pu 0.16717930 9.45343428 -2.53218067
O 5.12212608 8.88873147 1.32006956
O -6.29357169 -6.51881999 0.95578222
Pu -1.80110010 7.26470912 -9.11091611
O 4.15203082 6.94501526 0.15911788
O 4.13223399 1.91371683 -9.86310935
Pu 2.37756764 -8.20874787 4.49085799
O -4.70712084 2.47188985 2.50419103
O 1.69712794 10.00689278 -0.75976128
Pu 3.00672069 -5.42853230 6.94276580
O 2.94642326 -1.02393607 -11.31919249
O 0.54101304 -7.18803222 -9.12726742
Pu -9.04295685 5.15450217 5.11770573
O 9.60170677 0.64220903 1.95139700
O 5.08903954 -3.43005020 -8.41309376
Pu -0.91930744 -6.61738863 -4.19078935
O -8.33208042 6.98722524 4.84501604
O -7.85867936 5.79434158 -4.56977764
Pu 5.13289267 6.10563278 1.95541679
O 4.05089500 4.33836000 1.39865000
O -8.57180070 2.86154996 -5.37057286
Pu 12.03736355 2.88165212 -1.36164144
O 6.74097710 4.98076346 6.89126895
O -2.04819783 6.32327418 8.15004153
Pu 3.84974427 0.96536601 -0.94783446
O 0.28629900 -1.59193300 -5.12497600
O -5.88774610 -3.30798252 6.45006771
Pu -1.00927100 0.89982800 -5.82001000
O 3.95619818 5.40658022 3.67181180
O 3.44211274 7.96990729 -5.28599947
Pu -11.03620172 2.26670828 6.31215778
O -10.31102713 4.00837590 6.54390388
O 13.06386422 4.01325210 -2.64631811
Pu -9.75614135 4.15815560 1.34980830
O 5.71343830 5.92747084 -1.79258854
O -3.37051400 4.37306300 5.54104500
Pu -9.22201568 0.42714853 0.65718398
O -10.42520126 4.28423493 3.49582333
O 1.07157134 -8.90095095 -6.00174896
Pu -9.53223394 -5.97395741 -1.51665036
O -2.23989278 -0.29474625 -0.13432437
O 2.42101250 5.02088419 -9.89025515
Pu -1.79966400 -3.11401300 6.80433200
O 4.66150459 1.82889020 1.73376124
O -3.70632300 6.69899000 6.68802800
Pu -4.73835240 7.78467650 0.32664445
O -3.59865747 0.58389868 -5.66010713
O 6.72030932 4.67946062 3.29422547
Pu -0.78630909 9.07565063 4.68124968
O 0.48778161 4.13885613 9.71995633
O 8.39454457 2.65668835 2.64592598
Pu -5.92392551 -1.30927130 5.62164939
O 0.03617236 0.57088438 -10.60850696
O 4.95556402 3.14529288 -1.20198914
Pu 7.19958597 -1.07784184 -3.99360741
O 6.77710655 -5.59043234 -1.25807972
O -2.81161491 5.96645496 -6.31105709
Pu 2.06180407 -10.17425720 1.75678562
O 6.38373344 5.35194903 0.71263771
O 11.42106184 0.84462892 -1.94422028
Pu 9.73583406 3.54827306 1.42234048
O 7.72611611 -4.87794815 2.81594232
O -1.39248900 1.14023900 7.92487500
Pu -3.34750400 -1.57964900 -1.81020800
O -0.49439825 7.79101537 -7.42067657
O -0.32374995 -1.56558325 -12.47287163
Pu 1.67164380 7.12303954 -6.32994094
O -10.21560321 -4.84549567 -3.10230185
O -0.44322636 -12.47194223 -2.13043636
Pu 2.36251526 -2.66274261 -1.44565973
O -7.47623840 0.32560962 -0.93462972
O -4.64502038 -4.36130116 9.83442641
Pu 3.26790251 -9.90003558 -2.16682968
O 6.52846598 -4.61186801 -6.81461248
O -0.14425900 -4.79461200 -2.31845200
Pu 3.01770121 8.64709656 0.04007826
O 8.79572997 0.12343216 -3.77821441
O 3.85397983 -6.53961505 -7.11134557
Pu 2.62309300 -7.63847900 -5.23304700
O -4.24387309 4.07464252 -5.11551238
O -9.73565110 -0.29714936 -1.53795763
Pu -3.23789700 7.83714400 -2.58772300
O -0.98934626 -5.02511768 2.07263908
O 5.22391302 5.29346634 -8.16335438
Pu 5.16967954 -8.50443912 0.27652162
O 1.19958514 1.92963140 -4.78596228
O -3.15365791 3.33711434 0.50392573
Pu -4.20782100 1.05777600 -3.88237400
O 1.49747884 -4.39734322 -11.87103325
O -6.04052083 -7.78339418 -1.92001785
Pu 7.62726511 -3.05775215 5.98918132
O -4.58147051 -1.79076415 -7.15793863
O 6.96135111 -1.55756615 6.97981432
Pu 6.64866067 6.80099814 7.53282286
O -0.83493400 4.95871100 1.13822300
O -9.14395981 2.29071487 8.54676678
Pu 8.37096280 4.19917915 8.11594945
O -2.72642402 -9.01221797 -3.06704972
O -2.53892300 -2.31971200 9.62493400
Pu 6.09937065 4.01825295 -2.73324025
O -10.07168606 2.25739557 0.90152542
O -1.37580289 -4.30085080 -6.49863016
Pu -0.55874386 -3.17588598 3.23896028
O 7.39302115 -0.78128340 4.55053271
O -4.17386857 5.91742031 -1.55886478
Pu 2.86100400 -2.17255500 2.52606500
O 3.95243446 8.82478709 5.77302109
O 5.27287161 0.30091870 -2.58741233
Pu 3.05640600 2.14955400 3.17947400
O 2.42358258 -3.02141523 -7.11765610
O 8.47668513 3.30879003 9.79853765
Pu 1.29205048 -12.39724651 -0.91596102
O -7.60102480 1.70429701 2.41922417
O 0.11511896 -8.99507287 1.14067192
Pu -6.96797531 -8.54823275 -0.05287851
O -7.62812583 -0.68308797 -6.57515503
O 2.80882133 -3.90826309 1.73064335
Pu 7.00906755 -2.96386387 -7.89942219
O -4.23092296 -9.76291097 -4.94772896
O -0.79821287 -2.28160543 -1.20207529
Pu 6.16841067 -7.24122702 -2.97596536
O 7.68212124 -7.79808929 0.41926607
O -8.27761197 -4.90888184 3.56532545
Pu 3.39384900 4.64812700 -0.59715100
O -10.42188504 -1.79321399 -3.83071514
O -6.16637638 -3.58322499 1.38440851
Pu 0.14722818 -7.92868209 -7.36268428
O 6.12517000 -1.75337000 0.62788200
O -5.62560584 1.23547285 5.19738303
Pu -5.45055613 -4.19726076 8.10790068
O -2.42320753 -6.14022562 0.02891753
O 1.53301780 2.58166659 -9.31283397
Pu 6.22853200 3.22405100 1.69602500
O -7.32037879 -1.87051558 7.43799738
O 4.84658831 7.46911912 3.30779081
Pu -3.52499237 1.37542865 0.68329465
O 1.35124229 5.19035944 -0.91615550
O 0.57587091 -3.57818977 1.05237611
Pu 9.16873910 0.40129233 3.86310851
O 5.23241424 2.63102995 4.10895489
O -0.08464828 6.72021171 -4.98305126
Pu -4.54505100 -5.68957800 -0.33778600
O 1.39470100 -3.64499900 3.37879900
O -6.85296900 4.45892700 -1.72935300
Pu -1.96568073 -0.14880507 9.22169025
O -5.82660200 -1.66053600 3.72189000
O 9.15141011 0.02982130 5.86635992
Pu 2.33173800 -0.92628900 -7.14417100
O 6.92241700 0.34452000 -5.82567500
O 2.58517437 -9.95077847 3.68386282
Pu 8.33664200 2.25399300 -5.10671300
O -3.64847052 -6.44915060 1.96407125
O -0.63878715 6.39879016 -10.35205805
Pu 3.28384130 7.37545171 7.04475140
O 6.21721313 0.83160534 8.89548764
O -1.56858081 -1.08418486 1.76404638
Pu 9.16023468 -4.24168439 -3.05886386
O -2.61954800 5.49008800 -2.92650600
O -2.45866241 0.31664128 -2.03766099
Pu -5.35250300 5.04974900 6.24050500
O -6.31510578 -5.61770800 7.14181670
O 1.38325876 7.82314429 0.99854460
Pu 5.94729879 -4.38820492 -4.67681811
O -0.50559100 -1.78864100 6.03807400
O -0.15736600 -0.86257100 9.04014200
Pu 4.41931065 7.36928623 -3.60822776
O -2.77214392 2.88409612 7.76487786
O -7.58227248 -6.37871793 -0.85011783
Pu 2.30603623 0.79516418 -10.39127174
O 1.85567459 -1.36571061 1.08549653
O -7.56028776 1.31210420 -2.97137537
Pu -0.53902400 -2.68577400 -3.70563800
O 6.81399471 8.29498771 6.07197356
O 9.76241624 4.51997456 3.36132522
Pu 8.04291855 4.73239062 4.68507011
O 12.30153063 -1.51150141 -0.47559123
O -2.58788600 1.71081300 10.83011200
Pu 2.46539507 -5.93683795 1.67967006
O -0.16170400 -6.57155800 -0.79662600
O -10.76991340 -0.03750330 6.17215328
Pu -7.68413927 3.52821970 8.02490838
O 8.42894058 6.06221331 7.68747566
O 2.18462763 1.24510702 -2.36265912
Pu 11.26452190 -1.07911530 -2.09426304
O 1.25255427 -2.51206305 -3.05262698
O -4.19840684 -0.65394789 1.57718354
Pu -7.50483333 -1.46865431 -1.90419772
O -4.94326400 -1.53709500 -3.83304600
O -2.38302300 3.00707900 -6.69141100
Pu -6.00868200 -1.41283100 1.45033000
O 4.45315300 -5.90718600 -1.63960100
O 8.80445786 3.62326595 6.09962305
Pu -10.00702589 0.27650975 -3.37440103
O 9.64494740 -5.13164258 -1.21181310
O 3.61889323 -1.09537145 -1.43704371
Pu -7.35387837 7.36538397 3.08862807
O -1.96578741 9.41740768 -3.39734050
O 1.89600436 -8.33725688 -2.32743794
Pu -2.81398894 -4.09650491 10.34005265
O -3.42648228 9.03081155 4.65955701
O 4.76661232 8.42534806 -1.65596780
Pu -9.20718047 -3.37003561 -4.09405510
O 11.80275641 2.71563941 0.69374115
O -9.62780228 1.92315504 4.99633190
Pu 3.84731774 3.88423432 -8.77943393
O -0.94870700 -5.75269300 8.03225500
O -4.25958872 -7.08617206 4.60775498
Pu -9.48257336 4.49009300 -4.07841789
O 3.12732073 -7.39514074 0.16261619
O 9.44275700 -2.27779900 2.72106200
Pu 1.25643315 -2.42116079 -11.72666665
O -4.06424407 7.57823035 -4.28682723
O -8.90453334 -3.64320054 6.03389953
Pu -1.70827836 3.31255235 9.44514047
O -4.65133841 -8.71855450 0.36854575
O -2.14012849 -2.39714980 -8.97169620
Pu -2.40162000 4.95992600 -0.89326300
O -1.94401619 10.77135345 3.88189595
O 4.45439560 3.96614404 -4.44049546
Pu -3.91660707 1.83299853 6.61906625
O -4.49665800 -3.82564100 -1.26413000
O -1.32011776 -0.86091676 -3.75618307
Pu -1.78573709 -7.39460253 2.45238073
O -1.61242400 -4.54166000 5.02966100
O -7.65515289 -0.44869323 5.23815233
Pu -0.38886056 2.34643272 5.93405365
O 1.24263253 -3.61159652 6.23936203
O 5.21977543 -7.83105113 2.31086223
Pu 3.12451323 -1.05855053 -3.83503994
O -7.50500508 3.57770416 5.83000975
O -5.35922800 -1.50838300 -0.59592400
Pu 7.42386123 0.74006485 6.82756006
O -4.51222284 5.96593285 1.76091003
O 5.04546000 -6.30408200 -4.41205900
Pu -7.61648347 1.59148608 4.73547212
O 1.38814764 1.28439559 4.34606203
O 6.77029229 -0.83607058 -8.42328820
Pu -9.15060734 -1.75153853 6.65636339
O -9.76983451 5.39350205 -2.41094065
O 8.67564846 -3.61282361 0.69065378
Pu 2.44014136 -5.78485255 -2.07899294
O 11.61029900 -2.96597300 2.26151800
O 7.21453910 -2.66167021 -5.49953449
Pu -1.55549374 8.46905486 -5.73509450
O 7.58267297 -2.75903284 -2.68345141
O -10.62986943 2.11436694 -3.05302446
Pu -4.00435400 7.25588932 4.21389558
O -1.35233898 7.98817282 6.18514361
O -0.25779815 -3.55932966 -10.46849945
Pu -5.80605700 -1.40570500 -5.73121500
O 3.47601400 -0.16866400 -5.65721700
O -3.33226300 -0.20936200 7.25848000
Pu -3.52320459 -10.31003517 0.19776449
O -3.73938759 7.16653203 -8.80052775
O -8.32695258 -3.26708606 -2.32089788
Pu -4.72710636 -8.92600475 -3.18297010
O 1.45646336 -4.29964607 -0.91097972
O -2.32030500 7.46606100 0.11967100
Pu -6.39690359 3.99975288 2.65170247
O -0.44371069 -8.47388554 -3.12034884
O -5.86692000 6.94305700 4.96383200
Pu 8.74622555 -5.95570214 0.68450976
O 4.29238100 2.64855400 -7.02112600
O -3.51768026 9.92244042 7.31643305
Pu -0.37034773 0.84208214 -2.57224195
O -2.86755800 -2.74417400 3.17728800
O 3.38858500 -1.25256400 6.07140600
Pu 5.50246821 8.68253298 4.62912082
O -7.98406600 5.23683200 3.29137000
O -4.28544100 8.91529800 -1.27880600
Pu -2.63760933 4.39788473 2.95819916
O 2.03726152 -7.85342755 2.34862856
O -8.02897258 -1.14933657 1.08083342
Pu -7.63477027 1.24799690 -5.91392056
O 6.90467330 3.63025584 -4.92819154
O -6.62254235 -9.24035132 2.06567931
Pu -7.81025069 -4.99082504 1.44453438
O -2.68878238 0.01066908 -10.02549536
O 7.48655351 -5.44691237 -3.75218942
Pu -1.10814979 -10.49521795 -3.23797678
O 2.61965401 5.62541334 7.66809780
O 0.37884500 -0.25305600 -7.36722500
Pu 0.35703922 -8.41743125 -0.91142126
O 4.05691580 -3.50092322 -1.87999640
O 6.68108321 -4.82159249 5.49123118
Pu 0.92014900 5.89921300 -2.97680800
O 10.06700146 -6.18792168 2.72877845
O 0.72541312 1.36906163 -0.75502507
Pu -3.20679200 11.37389900 5.53982300
O -1.75726866 -8.72922651 -7.88728157
O -2.82310813 -3.04143514 -2.95754129
Pu 6.34087992 7.78545181 -0.46269954
O 3.69177449 0.48179713 -8.07777644
O -3.31822590 8.93794678 -6.87256776
Pu -0.35777835 -0.87803122 0.09928969
O -2.84260295 -9.32446957 2.19479503
O -0.85243500 -7.62135000 4.39103100
Pu 5.88045830 4.75806284 -6.25899354
O -1.19668300 3.34169000 -1.09282000
O -5.31915566 4.71683867 4.29928353
Pu -0.87077900 -4.69125300 -0.08285600
O 7.54845580 2.46622211 -6.98138772
O -2.34413473 6.44104813 3.70930120
Pu 4.97694600 -1.23367200 4.58754400
O -4.28444181 -3.11795942 -5.43471470
O -7.89775535 3.54136602 0.05237416
Pu -4.58651269 7.37147325 -6.64565049
O 3.47044267 3.00176467 7.40237759
O 1.05266995 6.87568015 6.20643936
Pu -7.14484815 -4.75060038 5.32482744
O 4.02066968 -8.47236173 -3.67757504
O -8.09407920 -1.17774338 -4.01366124
Pu 1.55529200 -1.38895400 7.41242200
O -5.38258322 5.66023243 -7.07310373
O 1.34476629 -6.26937892 -3.86740220
Pu -1.81060700 4.46235000 -4.96477100
O -8.84937778 -8.55573635 -0.52245758
O 2.83898630 5.11568084 -2.73315254
Pu -6.73506928 2.45008317 -1.62438752
O 7.95869669 8.47828045 -1.42651578
O -3.27271100 -4.27315900 7.92893900
Pu -5.08978159 -8.09681889 2.64154965
O -2.02780751 -10.56037159 -1.03180753
O -0.06733132 -3.27121700 8.51254222
Pu 10.95639272 -1.42741134 1.10568932
O 5.50598700 0.23549900 6.09529200
O -5.19497202 -9.94995819 -1.47457231
Pu 3.68177289 -4.80798716 -8.18953821
O -5.12887920 3.30064122 -3.19095660
O 5.08898146 -9.03102029 -1.55635259
Pu -4.92619395 -3.90073860 -3.47539487
O 1.54602730 -4.60644491 -9.14212603
O 8.98871311 -3.88036315 4.82029732
Pu 4.87316000 4.05304200 5.79443000
O 0.26463300 4.54107300 -4.36833200
O 3.50338407 -6.33931023 5.14288349
Pu -3.97826843 -5.20801670 3.92452301
O 7.04041528 2.42486461 -0.15854507
O 3.32540903 -10.20161365 0.07968857
Pu -0.00289065 -3.12506978 -8.15941990
O -1.36643231 11.04717883 5.88551650
O -7.12413800 5.59206200 1.48259700
Pu 8.41319953 1.28739589 -1.03992010
O -0.87702169 -4.83419135 10.77064349
O 9.92120302 -0.35431796 -0.39128700
Pu 0.42856806 -5.02086159 9.32741270
O -2.96944641 -5.92818026 -8.15973353
O -3.93606900 -1.51681700 5.52390600
Pu -0.83817073 0.75116081 3.12246913
O -1.36640300 2.47646000 -4.18161600
O 2.11005820 -4.20335754 8.62910616
Pu 10.40643173 -4.29730322 3.52444176
O -0.35035391 5.11936196 4.05818561
O 4.96582034 6.17919162 6.09292287
Pu -3.58580462 -4.44242269 -6.77691645
O 2.91881360 4.97900448 -6.53928384
O 0.54621144 -10.37874546 -2.11835634
Pu -1.29502603 -1.16426966 -10.75462337
O -1.96167636 -7.20957799 -5.76694123
O 10.02921500 3.24073881 -0.92213345
