420
ML-kMC step 100
Pu 1.53886500 5.73510600 4.30004400
O 2.47819500 0.71693100 7.75585400
O 4.83688500 -2.82043400 -3.82049500
Pu 2.79538400 3.00665000 -5.40479000
O -5.60785000 8.20134500 1.98939300
O 10.73621100 -2.84609200 -3.34221500
Pu -7.90403800 6.00035400 -0.28430400
O 3.05010100 -11.95864400 -1.91397700
O -7.09371600 -3.45905200 -4.81284000
Pu -4.27057300 3.60264200 -7.45970400
O 1.23225324 -6.85665078 6.35590166
O 5.08503160 7.38978506 8.54447061
Pu 5.62173600 -5.98621200 3.89690900
O 2.28542900 2.55746600 0.28308000
O 5.79344737 6.31878067 -5.04035681
Pu -1.22988700 5.53955800 6.45648400
O -5.99846400 0.67681700 -5.05936400
O -4.40163262 1.02785955 -1.50859581
Pu -5.37372900 5.30791100 -3.44588800
O 8.19026700 2.60766700 -2.72590200
O 4.20023100 -0.75159500 2.65110100
Pu 1.67480900 3.92463200 8.19814000
O -4.79827198 1.58088742 -8.03576559
O -6.16686000 7.49445100 -0.93600100
Pu 0.23731304 -5.47369313 -10.67962239
O 2.17467900 7.71177100 -2.67368500
O -5.72844700 2.74791000 8.04369400
Pu 5.81868507 -3.26881825 -1.12525202
O -1.29562400 2.95778900 1.84911900
O -0.51471600 3.49046600 7.93334900
Pu -0.50395304 6.88963717 1.56736565
O 4.72434900 -5.57962800 1.92117600
O 0.78368400 4.17249600 6.06850100
Pu -3.63866000 -0.52157900 -8.42978200
O 1.26262775 -6.55408812 -6.05643251
O 0.79080800 9.00546100 -5.11735200
Pu 0.29764600 3.11177300 0.67131700
O -1.83042090 4.50631133 -9.34609728
O 4.66823800 -3.22794700 3.94265600
Pu 0.04498000 4.59186300 -9.90637300
O -6.75417200 5.08918500 7.67986900
O 0.68889800 -1.84355300 -9.64986100
Pu -3.61902000 -7.98271400 -6.93226700
O -5.27381101 -6.54274496 -7.18981805
O -5.84866700 -5.69487800 4.27947400
Pu -0.85634975 -6.28498714 5.95682554
O 6.19140100 2.56585500 6.36241500
O 1.19133035 -11.97685152 1.10723936
Pu -2.73945686 8.20567094 7.55728260
O -2.22015427 2.25774289 4.91764498
O -9.78389400 6.23539600 0.85960900
Pu 5.78762800 0.85727000 -8.00512800
O 3.50179243 -6.60906473 8.04046132
O 0.44177900 7.47437200 3.53696600
Pu 4.54468300 0.78074700 7.86967000
O -4.34249500 -5.99118700 -3.55614900
O -9.69644800 -5.34229800 0.28678900
Pu 7.33917300 -2.89513300 1.89059500
O 1.41436700 3.67548300 3.14296400
O -1.07680364 7.52374948 -2.17840834
Pu 0.20782100 9.45264200 -2.49726400
O 5.06174800 8.91816000 1.46941200
O -6.14250734 -6.60547762 1.17335909
Pu -1.97176587 7.52625068 -9.34976301
O 4.19017900 6.96661300 0.14645300
O 4.28251600 1.86360200 -10.02003800
Pu 2.45994495 -8.31130079 4.55690247
O -4.71291061 2.81930494 2.34058190
O 1.69331700 9.96081900 -0.77310200
Pu 2.90226900 -5.26113500 6.83299200
O 2.76406385 -1.33639226 -11.21542574
O 0.53109400 -7.33024600 -9.21110200
Pu -9.16107900 5.24240500 5.18775200
O 9.62309600 0.67361400 1.92493900
O 5.21242354 -3.36670418 -8.90545488
Pu -0.89753300 -6.58576200 -4.20102100
O -8.49409146 7.10662606 5.11534288
O -7.84201000 5.66882600 -4.54487500
Pu 5.12775908 6.09678917 1.91378176
O 4.19598848 4.34527929 1.33371437
O -8.50380817 2.84146867 -5.27751989
Pu 12.32929700 3.03220700 -1.36193200
O 6.71777365 4.97854516 6.64965128
O -2.19910000 6.21842900 8.11587900
Pu 3.75838300 0.92697500 -0.90412500
O 0.28629900 -1.59193300 -5.12497600
O -5.76553807 -3.24267082 6.29948251
Pu -1.00927100 0.89982800 -5.82001000
O 4.18770800 5.29696400 3.69041400
O 3.49013105 7.83239469 -5.24185037
Pu -11.12063100 2.26962100 6.37284000
O -10.44883700 4.02741700 6.64231400
O 13.34432500 4.03630900 -2.69235200
Pu -10.12699600 4.20105000 1.38731100
O 5.70980000 5.92921100 -1.79094400
O -3.29950821 4.41607588 5.54094218
Pu -9.31816199 0.46371996 0.55725361
O -10.29019979 4.50861913 3.47195744
O 1.07144948 -8.90051372 -6.00138512
Pu -9.70768212 -5.89923355 -1.55118277
O -2.40407872 -0.14142043 -0.06409323
O 2.34685652 4.75152403 -9.86435845
Pu -1.79966400 -3.11401300 6.80433200
O 4.59169700 1.83317000 1.70933800
O -3.70632300 6.69899000 6.68802800
Pu -4.75645800 7.83684600 0.30051600
O -3.60418545 0.60433772 -5.62560754
O 6.71472100 4.67905700 3.33267000
Pu -0.92505600 9.48420500 4.66662800
O 0.69894100 4.45239200 9.80417200
O 8.37452600 2.65785800 2.65085700
Pu -5.86279133 -1.30719686 5.74794070
O 0.13277888 0.47931974 -10.81455047
O 4.86340900 3.10655100 -1.15927800
Pu 7.20324500 -1.09186100 -4.00110500
O 7.18569800 -5.72539300 -1.40454900
O -2.73334600 6.07287400 -6.60741100
Pu 2.05268578 -10.18430699 1.74976194
O 6.42690132 5.35400079 0.72739622
O 11.69337800 0.80506300 -2.27768600
Pu 9.83085469 3.72312020 1.44037008
O 7.72645600 -4.87763600 2.81479600
O -1.40290331 1.20786265 7.93896071
Pu -3.34750400 -1.57964900 -1.81020800
O -0.39576700 7.96710300 -7.59348400
O -0.35207860 -1.75023887 -12.72773161
Pu 1.83509900 7.13678900 -6.40224100
O -10.39796766 -5.02073330 -3.14012549
O -0.31064600 -12.69494700 -2.16646300
Pu 1.82555200 -2.56849500 -0.67833500
O -7.38558000 0.34775600 -0.89551100
O -4.68757000 -4.39427625 9.84147488
Pu 3.31584500 -10.05104900 -2.20311800
O 6.49333495 -4.56159121 -6.97454900
O -0.14425900 -4.79461200 -2.31845200
Pu 2.94992100 8.81968500 0.12542600
O 8.79938900 0.10941300 -3.78571200
O 4.04106768 -6.63255920 -7.15658121
Pu 2.62309300 -7.63847900 -5.23304700
O -4.28900400 4.13236200 -5.40284300
O -9.77370100 -0.32245100 -1.45674200
Pu -3.23789700 7.83714400 -2.58772300
O -1.03559400 -5.04624200 2.11988200
O 5.03144700 5.45515900 -8.18213900
Pu 5.28657699 -8.39941336 0.44000376
O 1.10765200 1.89126000 -4.74326400
O -3.36128132 3.45158321 0.54533347
Pu -4.22573670 1.08267926 -3.82329826
O 1.48609100 -4.64355700 -12.01145800
O -6.00680900 -7.85768100 -2.03563400
Pu 7.62760500 -3.05744000 5.98803500
O -4.53919500 -1.83531600 -7.15147300
O 6.96169100 -1.55725400 6.97866800
Pu 6.61614400 6.76547700 7.54664000
O -0.83493400 4.95871100 1.13822300
O -9.43229100 2.16382100 8.72081400
Pu 8.39049681 4.09072024 8.23447112
O -2.85175000 -9.27874900 -3.22504000
O -2.53892300 -2.31971200 9.62493400
Pu 6.16731600 4.04708800 -2.70506500
O -10.02797559 2.36615380 0.88155824
O -1.09560100 -4.19992800 -6.24295100
Pu -0.52413900 -3.18415400 3.35520300
O 7.31896545 -0.85960053 4.40445232
O -4.18604600 5.94416900 -1.56651900
Pu 2.86100400 -2.17255500 2.52606500
O 3.85362800 8.88698200 5.74098000
O 5.18065700 0.26271100 -2.54444100
Pu 3.05640600 2.14955400 3.17947400
O 2.42185700 -3.08945800 -7.09207500
O 8.53990339 3.15410904 9.88109271
Pu 1.21051217 -12.65406530 -0.96004376
O -7.59529500 1.68277300 2.41328500
O 0.06168800 -9.00894300 1.35555000
Pu -6.94262900 -8.49776400 -0.00885000
O -7.62822900 -0.62312400 -6.55598200
O 2.82476083 -3.90517486 1.72850985
Pu 7.04044365 -2.75011469 -7.98695006
O -4.28937415 -9.83553746 -4.93314229
O -0.86532600 -2.31311700 -1.15003600
Pu 6.17884100 -7.26087800 -2.97865200
O 7.66946013 -7.69705348 0.24586505
O -8.39990816 -5.06062071 3.65854600
Pu 3.39384900 4.64812700 -0.59715100
O -10.53700894 -1.99407685 -3.60671747
O -6.10797400 -3.76283500 1.59653200
Pu 0.15180600 -8.09479100 -7.47176300
O 6.12517000 -1.75337000 0.62788200
O -5.66628100 1.31387500 5.15268700
Pu -5.41103900 -4.14183500 8.07997300
O -2.45312400 -6.38518600 0.14855300
O 1.57876900 2.60026600 -9.32952700
Pu 6.22853200 3.22405100 1.69602500
O -7.54253996 -1.85627398 7.67988756
O 4.88334521 7.43809835 3.30428414
Pu -3.54542977 1.52319253 0.61628120
O 1.23660900 5.10331100 -0.92383400
O 0.38877400 -2.84296900 0.83419900
Pu 9.23572400 0.47411900 4.03232100
O 5.22436800 2.62989700 4.09796700
O 0.13859600 6.68009700 -5.01165500
Pu -4.54505100 -5.68957800 -0.33778600
O 1.39470100 -3.64499900 3.37879900
O -6.85296900 4.45892700 -1.72935300
Pu -1.93819735 -0.19895030 9.18508925
O -5.82660200 -1.66053600 3.72189000
O 8.91208756 -0.12330235 5.90175072
Pu 2.33173800 -0.92628900 -7.14417100
O 6.92241700 0.34452000 -5.82567500
O 2.56363100 -10.08780500 3.81217900
Pu 8.30649445 2.18914671 -5.07250986
O -3.91958100 -6.37159500 2.04235300
O -0.64067341 6.35435746 -10.43503026
Pu 3.32580700 7.59555200 7.29557500
O 6.21770000 0.91775800 8.98762600
O -1.75420300 -0.86035700 2.09766900
Pu 9.34035368 -4.35095325 -3.08499074
O -2.61954800 5.49008800 -2.92650600
O -2.52227700 0.37946500 -2.01483500
Pu -5.35250300 5.04974900 6.24050500
O -6.34851300 -5.64731600 7.17950800
O 1.33798100 7.73328700 1.30393200
Pu 5.93029700 -4.35787700 -4.66670800
O -0.50559100 -1.78864100 6.03807400
O -0.15736600 -0.86257100 9.04014200
Pu 4.59359900 7.53863400 -3.70237100
O -2.74531716 2.87261337 7.75769548
O -7.92076100 -6.55456400 -0.86017600
Pu 2.46993348 0.72971185 -10.32753088
O 2.26262500 -1.37222200 0.86394200
O -7.56208601 1.22054663 -3.14651114
Pu -0.53902400 -2.68577400 -3.70563800
O 6.92932700 8.43604300 6.17509700
O 9.65583850 4.42430700 3.21377463
Pu 8.06429600 4.73016600 4.69743400
O 12.45947197 -1.57373296 -0.33639769
O -2.58788600 1.71081300 10.83011200
Pu 2.57817000 -5.98309000 1.77187400
O -0.16170400 -6.57155800 -0.79662600
O -11.07995900 0.02076700 6.43239700
Pu -7.70241853 3.53201507 8.26066689
O 8.34439355 5.97116237 7.74779583
O 2.09299300 1.20672200 -2.31973000
Pu 11.37566700 -1.08278400 -2.08580600
O 1.46127969 -2.45827024 -2.94479196
O -4.39536313 -0.15090870 1.99806747
Pu -7.46658500 -1.41535300 -1.85640500
O -4.94326400 -1.53709500 -3.83304600
O -2.22971001 2.94513010 -6.62117302
Pu -6.00868200 -1.41283100 1.45033000
O 4.45315300 -5.90718600 -1.63960100
O 8.95479900 3.69036500 6.12787100
Pu -10.05233600 0.20298300 -3.37529900
O 9.89487164 -5.23628562 -1.38456324
O 3.09228800 -0.94968800 -1.43566700
Pu -7.33237000 7.25259600 3.04183600
O -1.96491200 9.40659000 -3.41178600
O 1.91641900 -8.45955800 -2.36429300
Pu -2.88593597 -4.08927021 10.38760542
O -3.57487400 9.24486000 4.73039000
O 5.03806700 8.68699800 -1.63122300
Pu -9.29847000 -3.39894200 -4.12962700
O 12.27225567 2.86488437 0.71811962
O -9.66842500 1.88973100 4.99002800
Pu 3.86066000 4.03870000 -8.92095300
O -0.94870700 -5.75269300 8.03225500
O -4.25895600 -7.08557300 4.61011600
Pu -9.52317695 4.38864223 -3.97156825
O 3.12525100 -7.38583100 0.17411500
O 9.42664874 -2.28437892 2.72753564
Pu 1.33312091 -2.50980717 -11.67214965
O -4.10271775 7.53385912 -4.50369337
O -8.75102000 -3.83907100 6.28575500
Pu -1.68294700 3.34629600 9.65444600
O -4.64035300 -8.70182300 0.31614600
O -2.23837200 -2.43518700 -8.96405800
Pu -2.54062420 4.94889748 -0.85189109
O -2.19597175 10.73488371 3.99885906
O 4.56193500 3.89600000 -4.32146000
Pu -3.89823600 1.80798600 6.66007600
O -4.49665800 -3.82564100 -1.26413000
O -1.30245200 -0.45441500 -3.52093000
Pu -1.61648500 -7.62259300 2.58374000
O -1.61242400 -4.54166000 5.02966100
O -7.62525300 -0.55536600 5.52431700
Pu -0.42629100 2.26097000 5.72576200
O 1.00355000 -3.71937700 6.33082200
O 5.20006400 -7.81806400 2.30652200
Pu 3.09604200 -1.06747100 -3.76488400
O -7.48379046 3.72041343 5.64950132
O -5.35922800 -1.50838300 -0.59592400
Pu 7.42236174 0.73987119 6.82641308
O -4.55289800 6.04433500 1.71621400
O 5.04546000 -6.30408200 -4.41205900
Pu -7.51221500 1.60634500 4.71252900
O 1.41257600 1.23706200 4.58315200
O 6.81469308 -0.80792564 -8.32941910
Pu -9.37350243 -2.00389231 6.82606036
O -9.80317259 5.43876588 -2.40250296
O 8.63451400 -3.82478200 0.67165800
Pu 2.42707500 -5.79945600 -2.17246700
O 11.61029900 -2.96597300 2.26151800
O 7.32569381 -2.65483040 -5.44104687
Pu -1.55761600 8.46516600 -5.73246000
O 7.58633200 -2.77305200 -2.69094900
O -10.60344770 2.09053955 -3.02075470
Pu -4.05252718 7.29065070 4.19107949
O -1.31049100 8.13644700 6.27586700
O -0.45264111 -3.53590053 -10.74377959
Pu -5.80605700 -1.40570500 -5.73121500
O 3.47601400 -0.16866400 -5.65721700
O -3.33226300 -0.20936200 7.25848000
Pu -3.54847800 -10.31754100 0.21868500
O -3.89765700 7.53128100 -9.24801000
O -8.33578100 -3.31484200 -2.27728100
Pu -4.80443300 -9.01462000 -3.20895300
O 1.54847500 -4.51854500 -0.52412600
O -2.32030500 7.46606100 0.11967100
Pu -6.45022100 4.05277200 2.60396900
O -0.18267600 -8.40273100 -3.11524200
O -5.86692000 6.94305700 4.96383200
Pu 8.86760600 -6.18129600 0.63323500
O 4.29238100 2.64855400 -7.02112600
O -3.54220400 9.95870600 7.34715000
Pu -0.84729400 1.46763500 -2.39522200
O -2.86755800 -2.74417400 3.17728800
O 3.38858500 -1.25256400 6.07140600
Pu 5.48339148 8.64521690 4.65232626
O -7.98406600 5.23683200 3.29137000
O -4.28544100 8.91529800 -1.27880600
Pu -2.56835100 4.15679900 2.99260200
O 2.03965600 -7.84028500 2.34402600
O -8.18863000 -1.32719000 1.16384700
Pu -7.66102690 1.17439004 -5.88257814
O 6.90103500 3.63199600 -4.92654700
O -6.56156480 -9.39721220 2.05921155
Pu -8.00435500 -5.00463100 1.44771000
O -2.70674722 0.01129851 -10.00462236
O 7.68368900 -5.74689400 -3.85009800
Pu -1.08664734 -10.53904393 -3.26292836
O 2.71671305 5.60691380 7.97821625
O 0.37884500 -0.25305600 -7.36722500
Pu 0.38019600 -8.39817800 -0.90287500
O 4.07165800 -3.48501800 -1.88028800
O 6.88837700 -5.08147300 5.74057900
Pu 0.92014900 5.89921300 -2.97680800
O 10.01233673 -6.19909461 2.65722954
O 0.04149400 1.32116700 -0.19586600
Pu -3.43105923 11.13294665 5.65896081
O -1.74506400 -8.89085500 -7.94115000
O -2.89866300 -3.23953700 -2.95329700
Pu 6.60830700 8.01770800 -0.51620500
O 3.72232900 0.47978500 -8.10324800
O -3.09966500 9.06461800 -7.03842800
Pu -0.44114900 -0.59034000 0.06839300
O -2.87728500 -9.44218800 2.22557100
O -0.85243500 -7.62135000 4.39103100
Pu 5.79629032 4.73333805 -6.18181265
O -1.19668300 3.34169000 -1.09282000
O -5.31216700 4.74274200 4.14827000
Pu -0.87077900 -4.69125300 -0.08285600
O 7.72082100 2.46552300 -7.12620500
O -2.38955900 6.48888700 3.69520000
Pu 4.97694600 -1.23367200 4.58754400
O -4.28182800 -3.12233400 -5.43859100
O -8.13959100 3.56893200 0.09533600
Pu -4.61166700 7.44798700 -6.70152300
O 3.46776400 2.99601800 7.40204200
O 1.30311302 6.95726779 6.27984689
Pu -7.39343900 -4.96761000 5.40379000
O 4.03875300 -8.51226800 -3.71688100
O -8.08445200 -1.12050000 -3.95711400
Pu 1.55529200 -1.38895400 7.41242200
O -5.32559666 5.54142823 -6.98266890
O 1.33922865 -6.27851289 -3.82640536
Pu -1.93896211 4.41134459 -5.04722270
O -9.05527281 -8.56138577 -0.44280485
O 2.83534800 5.11742100 -2.73150800
Pu -6.73569600 2.45404600 -1.62288200
O 8.22100061 8.39020284 -1.58120215
O -3.27271100 -4.27315900 7.92893900
Pu -5.13597044 -8.22636478 2.66287803
O -1.94618700 -10.59748900 -1.12942600
O -0.05651100 -3.25883900 8.53098000
Pu 11.05469800 -1.44021800 1.11566200
O 5.50598700 0.23549900 6.09529200
O -5.42235700 -10.15013300 -1.60259600
Pu 3.86461100 -4.85372200 -8.15456700
O -4.86942800 3.33143500 -3.29965900
O 5.05590177 -8.94533400 -1.51087884
Pu -5.11247300 -3.80671200 -3.69379300
O 1.56297900 -4.64402900 -9.25105600
O 8.98905300 -3.88005100 4.81915100
Pu 4.87316000 4.05304200 5.79443000
O 0.26463300 4.54107300 -4.36833200
O 3.53722600 -6.34216800 5.15698500
Pu -3.97736600 -5.20561700 3.92622900
O 7.03473300 2.42379300 -0.16162600
O 3.45058547 -9.97734344 0.18444314
Pu -0.01514800 -3.11462300 -8.14316800
O -1.43758722 11.19811978 5.98468303
O -7.12413800 5.59206200 1.48259700
Pu 8.41656600 1.28612200 -1.04380400
O -1.08163749 -5.02297609 11.57883385
O 10.07249981 -0.38128590 -0.44835717
Pu 0.44035200 -4.94986900 9.58850400
O -2.97018200 -5.92539700 -8.15666900
O -3.93606900 -1.51681700 5.52390600
Pu -3.22592100 -0.89129900 3.63100600
O -1.36640300 2.47646000 -4.18161600
O 2.03160800 -4.19862700 8.59257900
Pu 10.40874085 -4.30235757 3.44797132
O -0.34944700 5.17919100 4.05217900
O 5.14039162 6.47451900 6.05743181
Pu -3.69678600 -4.46364800 -6.97961300
O 2.97128905 4.88998122 -6.46401619
O 0.52499463 -10.35596950 -2.13243741
Pu -1.30370397 -1.15225565 -10.75558636
O -1.95667500 -7.17961300 -5.80045800
O 10.16952315 3.16364234 -0.77683288
