420
ML-kMC step 3000
Pu 1.61805593 5.50729038 4.05999687
O 2.42885506 1.03146745 7.57338000
O 4.88195340 -2.46709504 -4.00940722
Pu 2.76614520 2.99841133 -5.09084914
O -5.42563882 7.93017440 2.18262308
O 9.34564996 -2.53706847 -3.14332266
Pu -7.71017479 5.75608916 -0.54686687
O 2.82144062 -11.34678889 -1.51876119
O -6.90418794 -3.20660199 -4.58946095
Pu -4.02298008 3.55730042 -7.41643125
O 1.17139722 -6.97465562 6.17444441
O 4.82151820 7.84847429 7.98594975
Pu 5.67643341 -5.75424989 3.64789717
O 2.45054710 2.84925433 0.01248737
O 5.60580024 6.14942843 -4.68413410
Pu -1.27337320 5.43576601 6.00608680
O -5.85400068 0.70772766 -4.91041426
O -4.47926327 1.23788737 -1.38265394
Pu -5.19623097 5.11135016 -3.32805267
O 7.41804491 2.38863869 -2.53509022
O 4.10357797 -0.61345511 2.94991497
Pu 1.67160671 3.94901661 8.04041745
O -4.44075220 1.42763023 -8.04514498
O -6.24310036 7.14565743 -0.62810493
Pu 0.23525861 -5.39951091 -10.18810520
O 1.85603152 7.62447698 -2.48092728
O -5.37543803 2.60121867 7.22466557
Pu 5.41323527 -3.49336075 -1.23145877
O -1.28314282 2.82188221 1.99401625
O -0.14086440 3.36907397 7.67954751
Pu -0.48525814 6.79161385 1.60005925
O 4.86399730 -5.51073394 1.83127395
O 0.80069143 4.25400492 5.77990319
Pu -3.19516540 -0.38235363 -7.93152991
O 0.64534713 -6.39386981 -5.96456758
O 0.63584578 9.03952967 -4.80805539
Pu 0.31861373 3.11431482 0.67472616
O -1.88760521 4.05852472 -8.51715047
O 4.81467809 -2.88561179 3.62049914
Pu 0.13599007 4.13051091 -9.00972089
O -6.47763768 5.04184660 7.89590985
O 0.86148762 -1.77301826 -8.95376332
Pu -3.55088005 -7.49247692 -6.68726991
O -4.37378658 -5.66077100 -6.06947093
O -5.90293954 -5.49853961 3.88521766
Pu -0.85138595 -6.14629439 5.80486524
O 6.30446322 2.38826538 6.88656439
O 0.58998548 -11.18364988 1.04094878
Pu -2.73124026 7.87235177 7.41721610
O -2.17825998 1.95296276 4.87641482
O -9.14656057 5.86058115 1.06252183
Pu 5.35680750 0.91358459 -7.31470598
O 3.09173885 -6.56144167 8.04812653
O 0.28402012 7.49235513 3.49261491
Pu 4.38574652 1.00068543 7.71478396
O -4.18986305 -5.97712906 -3.25221213
O -9.52603579 -5.01430617 0.55452020
Pu 7.27729831 -2.82689346 1.93511539
O 1.49185090 3.66798534 3.07201090
O -0.85381309 7.24421998 -2.27909387
Pu 0.29299833 9.01428164 -2.43342127
O 4.93676630 8.28269889 1.06615419
O -6.14853867 -6.50395994 1.23035868
Pu -1.70565545 6.85734922 -8.36991627
O 4.00945947 6.47917233 -0.02147802
O 4.11198059 2.03300198 -9.17978393
Pu 2.18603686 -7.87177344 4.76021575
O -4.64346258 2.88464084 2.39198263
O 1.60623855 9.44771484 -1.00260318
Pu 2.50766213 -5.24029200 6.73513948
O 2.70290986 -1.05123656 -10.43585356
O 0.36027264 -7.02618395 -9.05270506
Pu -8.96007974 4.94682444 5.04105002
O 9.42750365 0.52433929 1.88979922
O 4.91967893 -3.25621941 -8.38062062
Pu -0.73186891 -6.62464175 -4.14491837
O -8.13743709 6.64297861 4.70121714
O -7.04723754 5.10948512 -4.03203427
Pu 5.11531713 6.14225429 1.91632918
O 4.41305041 4.44388851 1.39604154
O -8.63695645 2.78344271 -5.21949069
Pu 11.60873283 2.67582165 -1.24602159
O 6.62211878 4.94199804 6.18795002
O -1.95274899 6.18209321 7.96806014
Pu 3.57656246 1.10187264 -0.74541032
O 0.75144979 -1.40070805 -5.54788396
O -5.79556091 -3.28686618 5.47692121
Pu -0.80402673 0.78301285 -5.71004262
O 3.93039916 5.03422310 4.00480230
O 3.45411713 7.61770879 -5.07992358
Pu -10.61503090 2.02375092 6.37110017
O -9.45282010 3.85645187 6.84045283
O 12.02325643 3.98219596 -2.61887275
Pu -9.39812337 4.05615327 1.78645183
O 5.71794945 5.83932643 -2.01352190
O -2.93167280 4.30654881 5.19118921
Pu -8.96232551 0.61616156 0.55825467
O -10.35936624 4.23220293 3.72239621
O 1.14773651 -8.73430302 -5.36262502
Pu -9.41637349 -5.87368982 -1.17679942
O -2.54633719 -0.44511035 0.26453028
O 2.03280354 4.72811821 -9.13456908
Pu -1.61893730 -3.17254345 6.98450279
O 4.33647621 1.91426721 1.63564753
O -3.44677885 6.42792342 6.07146762
Pu -4.63800540 7.23527531 0.42451965
O -2.96356346 0.23586601 -5.85007155
O 6.58167014 4.76889158 3.18307224
Pu -0.68666983 8.92011414 4.58577535
O 0.73189197 4.11559395 9.79573955
O 8.00210834 2.16047424 2.87433372
Pu -5.86080353 -1.30465339 5.67572278
O 0.64249733 0.24674281 -10.48131154
O 4.84563524 3.08411170 -1.07938016
Pu 6.73352780 -1.09242014 -4.04605702
O 6.75821390 -5.22880411 -1.51341747
O -2.28652772 6.27138728 -6.31744308
Pu 1.72771867 -9.73223896 1.92382811
O 6.63469952 5.54637020 0.61646283
O 10.26346302 0.91367065 -1.58861295
Pu 9.27275544 2.95191427 1.68780501
O 7.33533073 -4.76431410 2.61752112
O -1.21546092 1.29618971 7.41498522
Pu -3.50582222 -1.50636226 -1.60993733
O -0.00687364 7.28068557 -7.20320418
O -0.37537156 -1.71560432 -12.17865122
Pu 1.75035350 7.10640486 -6.09212136
O -9.73439316 -5.11401076 -3.03073587
O -0.66069266 -11.90752935 -1.97953484
Pu 1.95646916 -2.53543269 -0.60020613
O -7.11284439 0.58636783 -0.55428474
O -4.71470847 -3.67983390 9.73696976
Pu 3.22426972 -9.33658897 -1.77547839
O 5.76791407 -4.29673393 -6.66809122
O -0.48575663 -4.70615345 -2.68737996
Pu 3.05708693 8.25948003 -0.19014965
O 8.73963408 0.04193765 -3.70565479
O 3.35996784 -6.12225734 -6.45040900
Pu 2.59580342 -7.26339716 -5.01128322
O -4.16994249 4.17483239 -5.23872715
O -9.22526957 -0.34054387 -1.14622491
Pu -2.90225357 7.69788338 -2.50731444
O -0.61150546 -5.28175066 2.18044273
O 5.17483665 4.93582266 -7.71160236
Pu 5.03102142 -7.87339336 0.48672237
O 1.13234312 1.65014206 -4.76260976
O -3.35021325 3.64796869 0.37478624
Pu -4.06551753 1.15288882 -3.63017293
O 1.52506054 -4.06497601 -11.08148502
O -5.66650022 -7.25982977 -1.82266699
Pu 7.62760500 -3.05744000 5.98803500
O -4.62712959 -1.94414992 -7.30041296
O 6.61103576 -1.62527356 6.77462869
Pu 6.41743250 6.75854460 7.34270078
O -0.95046744 5.00485051 0.78524815
O -8.58674206 1.57311277 7.30812870
Pu 7.79514723 3.71496170 7.58123119
O -2.80639186 -8.75709282 -3.02642286
O -2.31929898 -2.30975555 8.84550550
Pu 5.97114902 3.90139549 -2.68980355
O -10.06236776 2.20206746 0.75406812
O -1.28262216 -3.82520331 -6.22576059
Pu -0.53252352 -3.29362140 3.22265714
O 7.22844664 -1.09968379 4.40312372
O -4.18316205 5.80497856 -1.53071952
Pu 2.85573984 -2.12016573 2.61048003
O 3.52216780 8.66183114 5.53548921
O 5.29206730 -0.04472777 -2.81926162
Pu 3.09147095 2.19111446 3.31225095
O 2.37101934 -2.92473216 -6.97022405
O 7.55835187 2.78583610 9.28858474
Pu 1.00796859 -11.70727975 -0.88890636
O -7.75189710 1.81817554 2.66390235
O 0.14630273 -8.61350630 1.14941453
Pu -6.65684961 -8.05821945 -0.16757899
O -7.39866028 -0.60615638 -6.61180015
O 2.84178175 -3.84502119 1.50697942
Pu 6.76095349 -2.77108223 -7.53142542
O -4.19785837 -8.66911410 -5.16705357
O -1.14073530 -2.60803857 -1.20460366
Pu 5.76103027 -6.91074235 -2.71134276
O 6.77877406 -7.18658115 -0.23569242
O -7.88539040 -4.79412904 3.27655970
Pu 3.38904298 4.68542227 -0.53199658
O -9.63270640 -1.75465092 -3.42507064
O -6.09678747 -3.67803607 1.37254076
Pu 0.10184844 -7.76809043 -7.16677014
O 6.06997824 -2.24163020 0.32487544
O -5.63036393 1.23955501 5.42228712
Pu -5.34172471 -3.66539247 7.78063581
O -2.56318767 -6.09544243 0.28760299
O 1.39432826 2.40494828 -8.44516932
Pu 6.15574566 3.22954869 1.70409055
O -6.74464927 -1.86497071 7.31647247
O 4.82514664 7.44014587 3.28869153
Pu -3.59210012 1.64952332 0.62680716
O 1.25122073 4.97439925 -0.78018357
O 0.12788622 -2.78074001 0.69442160
Pu 8.62241643 0.34636076 3.72840987
O 5.06738053 2.57505183 4.10232211
O -0.02152700 6.78977679 -4.84349827
Pu -4.54505100 -5.68957800 -0.33778600
O 1.43147464 -3.32794465 3.50980372
O -6.69863452 4.30362986 -1.85511393
Pu -1.93084617 -0.11614225 8.86907994
O -5.60764393 -1.67953446 3.49010143
O 9.11645847 0.25938844 5.57775526
Pu 2.26900422 -0.86536529 -7.06126005
O 6.41447978 0.34018332 -5.51048836
O 2.54710334 -9.46108165 3.67941381
Pu 7.78346940 1.80694849 -4.69604197
O -3.75287453 -6.13568745 2.24749242
O -0.26150658 6.12084495 -9.56285010
Pu 2.96624544 7.35803372 7.02230347
O 6.24873382 0.10873126 8.47901457
O -1.14144239 -0.79995833 2.75106655
Pu 8.47085704 -4.38191736 -2.75347212
O -2.53251747 5.63386350 -3.36507820
O -2.49091256 0.38411984 -2.06791380
Pu -5.25182800 5.09938089 6.07573367
O -6.32761088 -5.30620328 6.97371891
O 1.27834534 7.63448970 0.99780763
Pu 5.66923020 -4.23059678 -4.65622781
O -0.30963883 -1.95087703 5.87536672
O -0.05539541 -0.83803090 8.95565966
Pu 4.39179316 7.09355706 -3.35062650
O -2.78604470 3.40970251 7.46300572
O -7.38865221 -5.75381817 -1.02932780
Pu 2.43381758 0.86558250 -9.79217906
O 2.00813831 -0.97213384 0.69536105
O -7.13877612 1.30368827 -3.07674708
Pu -0.67229354 -2.82484975 -3.71867088
O 6.84220691 7.80066939 5.69926503
O 9.19528194 4.36478727 3.26218260
Pu 7.93526915 4.75884919 4.76725006
O 11.36420084 -1.34882830 -0.62146657
O -2.10639532 1.82095025 9.94699979
Pu 2.57483096 -5.99568052 1.52772379
O 0.16147235 -6.48854173 -0.76957055
O -10.39453927 0.10205504 6.07810791
Pu -7.24449137 3.29722440 7.78542743
O 8.17205675 5.82169430 7.18447744
O 1.84682053 1.17163362 -2.32106998
Pu 10.37355328 -1.15926909 -2.26243691
O 1.29401160 -2.30643850 -2.77750538
O -4.50682241 0.25681864 2.03089197
Pu -7.46655647 -1.41497156 -1.85746679
O -5.03177369 -1.33264245 -3.39538176
O -2.36463525 3.06771588 -6.47023073
Pu -6.05698456 -1.67756731 1.64348164
O 4.37536009 -5.70515122 -1.59404495
O 8.46766653 3.10349993 5.79591264
Pu -9.65624443 0.23554003 -2.97856354
O 9.29551645 -5.13820130 -1.17300789
O 2.94145425 -0.89924282 -1.52906746
Pu -6.93043366 6.96336504 2.94271553
O -1.58981889 8.84963579 -3.59210658
O 1.88476510 -7.93592405 -1.79862470
Pu -2.72521829 -3.91364325 9.90367723
O -3.63275054 8.77000067 4.56945576
O 4.65769124 8.17393547 -1.65641123
Pu -8.74429263 -3.41159834 -3.99710039
O 11.10319863 2.45671730 0.70691426
O -9.37825888 2.11793461 4.92098351
Pu 3.61835518 3.93207106 -8.34962673
O -1.05041062 -5.34705683 8.09793809
O -3.90723249 -7.03236980 4.26384726
Pu -8.82041286 3.95103624 -3.62342741
O 3.13393253 -7.23786359 0.09308789
O 8.89388730 -1.99995042 2.74540362
Pu 1.33115862 -2.11002224 -11.41147137
O -3.87324967 7.01432958 -4.18771264
O -8.52948334 -3.36897397 6.00828617
Pu -1.29519728 3.63876862 9.21956688
O -4.45413893 -8.07412094 0.44312530
O -1.82466198 -2.06491731 -8.09728700
Pu -2.44366345 4.93435291 -0.99219967
O -1.99183831 10.24957550 3.70564007
O 4.60147595 3.59686737 -4.17800387
Pu -3.73080555 1.92557122 6.45240768
O -4.80011695 -4.05049811 -1.53857120
O -0.87642468 -0.37346921 -3.63813184
Pu -1.77673361 -7.34898389 2.30493795
O -1.78365879 -4.48253886 5.00118853
O -7.63353131 -0.06924939 5.58026729
Pu -0.36310486 2.24859855 5.74888764
O 0.71954159 -4.58471869 5.95267345
O 5.31818133 -7.74474632 2.49536132
Pu 3.01887606 -1.11560098 -3.55612220
O -7.33312787 3.67913899 5.31366337
O -5.65273726 -1.36333829 -0.97934473
Pu 7.42567227 0.50229765 6.94179864
O -4.39577958 5.51788137 1.93577237
O 4.46488820 -5.87051819 -4.20442933
Pu -7.47386811 1.64770051 4.66833059
O 1.56658169 1.31755526 4.59843446
O 6.48621119 -0.75173324 -7.70944118
Pu -8.80092296 -1.48769951 6.30146909
O -9.09073401 4.98758968 -1.76105686
O 8.58019770 -3.62606820 0.69844526
Pu 2.35324568 -5.93969851 -1.95718602
O 10.89935227 -2.73857724 2.30852614
O 7.23004706 -2.62463889 -5.30618892
Pu -1.15694507 8.20478838 -5.62896829
O 6.87452071 -2.99915892 -2.85882773
O -10.11715639 2.16758513 -3.25109300
Pu -3.92718313 6.96142848 3.87871873
O -1.28044663 7.36000410 5.92992715
O -0.69972342 -3.03520479 -10.04350701
Pu -5.79492836 -1.46812180 -5.48733918
O 3.49886143 -0.19972557 -5.74118823
O -3.29235918 -0.14288091 7.30349916
Pu -3.39330680 -9.92916993 0.13649082
O -3.66612732 7.04190032 -8.39765312
O -8.10715335 -3.21877999 -2.17588342
Pu -4.68518372 -8.46992186 -2.99330726
O 1.55605884 -4.44619459 -0.57964720
O -2.28426803 6.93982287 0.13702451
Pu -6.29558382 4.03987772 2.42348657
O -0.46016488 -8.18929345 -2.89737176
O -5.75737710 6.80716245 4.78819641
Pu 8.16685981 -5.72347581 0.41259859
O 4.25880357 2.81566781 -6.63979724
O -3.58836715 9.58481521 7.19517923
Pu -0.47024432 1.54206723 -2.54001416
O -2.82791855 -3.04351414 3.33936957
O 3.38958375 -1.25247073 6.07095677
Pu 5.32230324 8.69014996 4.63364166
O -8.02475046 4.72887870 3.32569690
O -3.84811940 8.61601690 -1.01135192
Pu -2.60747770 4.08070947 3.00591046
O 1.76926538 -7.49089959 2.64090769
O -8.05945010 -1.09246011 1.11189839
Pu -7.56548461 1.21215738 -5.77154592
O 7.04880718 3.65683195 -4.64581086
O -6.34646038 -8.93409823 1.74845574
Pu -7.79362342 -5.03911431 1.38423417
O -2.72846362 -0.01952587 -9.82138802
O 7.06036504 -5.49513385 -3.78970500
Pu -1.25616965 -9.92411434 -3.02713869
O 2.74098155 5.56821649 7.75639684
O 0.18534890 0.02420801 -7.39513076
Pu 0.08358869 -8.45340546 -0.91950498
O 3.42366386 -3.42863438 -1.48200377
O 6.60470831 -4.55449527 5.06823307
Pu 0.80901872 5.87400657 -2.78228806
O 9.36701820 -5.65207239 2.02268102
O 0.03344398 1.10686284 -0.30521277
Pu -3.23044668 10.65321448 5.38354440
O -1.74512284 -8.66674925 -7.28013395
O -2.78738285 -3.09361830 -3.13440442
Pu 6.28996450 7.28056545 -0.78483436
O 3.47127898 0.27488016 -8.12207670
O -2.87841022 8.54264580 -6.74240674
Pu -0.34149978 -0.87796611 -0.19593577
O -3.25500659 -9.00808760 2.00422276
O -0.81822193 -7.62648240 4.31939839
Pu 5.85491980 4.62503361 -5.92103707
O -1.12229651 3.32420414 -1.44252064
O -5.05206785 4.66644407 4.17335964
Pu -0.67999552 -4.76820609 -0.34014651
O 6.95682559 2.38645275 -6.74975218
O -2.17333217 6.49519874 3.18753682
Pu 4.96185552 -1.12881640 4.64462625
O -4.31809325 -3.00003016 -5.25337524
O -7.63104562 3.41573487 0.46966097
Pu -4.42748532 7.01097208 -6.42314095
O 3.28959634 3.29349628 6.99806852
O 1.29758811 6.78647642 5.92503555
Pu -7.28167216 -4.83821264 5.16956419
O 3.92050965 -8.07348507 -3.44585869
O -7.86539842 -0.86620958 -3.92690580
Pu 1.37583185 -1.33863222 7.29013790
O -5.17234237 5.27704022 -7.02760130
O 1.45354622 -6.27075505 -3.78101474
Pu -1.81247069 4.46424023 -4.96449501
O -8.82468521 -7.63729673 -0.34318773
O 3.22923844 5.39498132 -2.49572186
Pu -6.53210015 2.27465257 -1.50438151
O 7.74195112 8.13374300 -1.73668509
O -3.39258293 -4.03408669 7.56603843
Pu -5.07141385 -7.80186004 2.65067986
O -1.56164082 -9.43329299 -0.86596140
O 0.00067644 -3.33307501 8.35014095
Pu 10.27707882 -1.23418723 1.01271036
O 5.52781305 0.57456135 6.05603267
O -4.89559643 -9.62473318 -1.30730520
Pu 3.46540796 -4.57860038 -7.56994102
O -4.87086674 3.02262474 -3.06604156
O 5.34747999 -8.71724525 -1.46237994
Pu -5.11247300 -3.80671200 -3.69379300
O 1.40488228 -4.81386103 -8.80734252
O 9.24382548 -3.81609087 5.24120260
Pu 4.84418282 4.07246720 5.51497128
O 0.38181341 4.41179104 -4.39918306
O 3.61048288 -6.24989321 4.99828106
Pu -4.04940597 -4.82163378 3.88765268
O 7.38746237 2.45356610 0.17821957
O 2.82107975 -9.59670820 0.20497784
Pu 0.09889529 -3.09073026 -7.64082972
O -1.05267908 10.40277732 6.04345376
O -6.97269778 5.68814003 1.49270482
Pu 8.23578822 1.15668820 -0.98455177
O -1.10110446 -4.65097821 10.66157935
O 8.84744800 -0.72697953 -0.44747961
Pu 0.64254556 -4.93450852 9.46632699
O -2.97087686 -5.81009293 -8.08779682
O -3.83426124 -1.47034722 5.38160997
Pu -3.22208238 -0.87491558 3.56130496
O -1.53813337 2.34798736 -4.20869510
O 2.22904431 -4.16309882 8.50068639
Pu 9.64932173 -4.21174176 3.30299035
O -0.63029216 4.95760641 4.08117295
O 4.85314559 6.13134816 5.91533424
Pu -3.26494228 -3.95376059 -6.80194306
O 2.57398468 4.78916518 -6.24667201
O 0.59006794 -10.00686351 -2.00241622
Pu -1.13491121 -1.09133390 -10.05649880
O -1.83291589 -7.11851927 -5.66275311
O 9.38347662 2.88788405 -0.77497069
