420
ML-kMC step 2000
Pu 1.64910424 5.46106694 4.38285518
O 2.45647661 1.02309552 7.61638502
O 4.95004709 -2.65311703 -3.93070684
Pu 2.72773347 3.00049982 -5.06455755
O -5.59463456 7.94617538 2.35179331
O 9.36717267 -2.54549897 -3.04435392
Pu -7.71017479 5.75608916 -0.54686687
O 2.89015145 -11.35621731 -1.52981629
O -6.90418794 -3.20660199 -4.58946095
Pu -4.15112982 3.59346568 -7.45659922
O 1.03792663 -6.67422905 6.23349556
O 4.95819942 7.72261596 8.25234514
Pu 5.71637321 -5.83402289 3.72001626
O 2.58879004 2.91997380 0.00059842
O 5.60580024 6.14942843 -4.68413410
Pu -1.24759517 5.42380451 6.06123641
O -5.85400068 0.70772766 -4.91041426
O -4.34153146 1.13639709 -1.49945520
Pu -5.25091423 5.16464444 -3.35763925
O 7.56013028 2.28907332 -2.84146415
O 4.02612479 -0.56906071 2.86893608
Pu 1.68730421 3.88986459 8.17371366
O -4.44477506 1.43419816 -8.05534063
O -6.29312230 7.27255477 -0.81600931
Pu 0.25499647 -5.36454552 -10.23312853
O 1.66285005 7.51555894 -2.52088554
O -5.45769281 2.71730569 7.49939027
Pu 5.68951009 -3.42167317 -1.15460964
O -1.29562400 2.95778900 1.84911900
O -0.22776914 3.47645182 7.80684211
Pu -0.48525814 6.79161385 1.60005925
O 4.86399730 -5.51073394 1.83127395
O 0.64703620 4.08525550 5.95524075
Pu -3.58090813 -0.46643882 -8.17526758
O 1.06769164 -6.41534090 -6.05588439
O 0.36374843 9.14982390 -5.04157229
Pu 0.29764600 3.11177300 0.67131700
O -1.93298792 4.28990496 -8.92561802
O 4.66823800 -3.22794700 3.94265600
Pu 0.07476470 4.33809805 -9.31519670
O -6.62205644 5.13747496 7.65286790
O 0.67742988 -1.80797695 -9.28352432
Pu -3.49467273 -7.62833187 -6.66407659
O -4.66451254 -5.96678449 -6.17934270
O -6.03892667 -5.30183536 3.98258528
Pu -0.79031187 -6.06372048 5.84721936
O 6.48883387 2.55936599 6.70063942
O 0.72619603 -11.38094697 1.00346912
Pu -2.76668789 7.90874792 7.44802110
O -2.32455059 2.12016551 4.80501368
O -9.24522950 5.91803091 1.08438275
Pu 5.43876183 0.93871609 -7.71287891
O 3.17712327 -6.67604449 8.28980553
O 0.23261470 7.41732732 3.59488517
Pu 4.54468300 0.78074700 7.86967000
O -4.41756023 -6.04193341 -3.31327054
O -9.51293059 -4.92039655 0.46276410
Pu 7.33917300 -2.89513300 1.89059500
O 1.41436700 3.67548300 3.14296400
O -0.85381309 7.24421998 -2.27909387
Pu 0.16316587 9.16352731 -2.40582769
O 4.68972775 8.50395746 1.35939070
O -6.19562338 -6.40426431 1.18504487
Pu -1.71736466 6.90444386 -8.42772209
O 4.08649819 6.60191094 -0.00448361
O 4.31498278 2.21932709 -9.44106225
Pu 2.36353082 -7.93529540 4.75439647
O -4.64631344 2.76907400 2.31550179
O 1.62112978 9.46371298 -1.09972765
Pu 2.50766213 -5.24029200 6.73513948
O 2.67285400 -1.11927402 -10.57185216
O 0.41086028 -7.05351154 -8.98282838
Pu -9.01136372 4.99561869 5.15392138
O 9.47110527 0.43288375 1.70306381
O 5.16932785 -3.33598861 -8.41598443
Pu -0.73186891 -6.62464175 -4.14491837
O -8.32548019 6.84766444 4.95509375
O -7.24130885 5.15592016 -4.04343411
Pu 5.11531713 6.14225429 1.91632918
O 4.41305041 4.44388851 1.39604154
O -8.57938465 2.71372123 -5.13343625
Pu 11.65988195 2.90555256 -1.44975850
O 6.61271495 4.90457101 6.36408841
O -1.96987338 6.22548397 8.26338245
Pu 3.73866366 1.03858423 -0.81780341
O 0.70007612 -1.42053704 -5.34258884
O -5.75925165 -3.45453892 5.92541847
Pu -0.92265945 0.83351041 -5.76769061
O 4.02156280 5.03402190 4.05843914
O 3.50249734 7.69392238 -5.11723942
Pu -10.69968116 2.03981465 6.42168826
O -9.43000735 3.93126942 6.77951053
O 12.57388637 4.19140185 -2.69205174
Pu -9.60732037 4.00165020 1.73393343
O 5.60191954 5.81156415 -1.94982389
O -3.04017976 4.40580102 5.35568605
Pu -8.96232551 0.61616156 0.55825467
O -10.26298425 4.21310138 3.65960700
O 1.14325707 -8.63866294 -5.62653958
Pu -9.61564009 -5.98437212 -1.23972610
O -2.47533971 -0.41568815 -0.00201812
O 1.98383541 4.80055920 -9.38546868
Pu -1.61893730 -3.17254345 6.98450279
O 4.35342914 1.80361135 1.57893905
O -3.48875644 6.46804149 6.15724562
Pu -4.58911280 7.40110308 0.29287013
O -3.21652308 0.30867188 -5.71825257
O 6.58167014 4.76889158 3.18307224
Pu -0.66616890 9.06335070 4.58392953
O 0.82637036 4.34637760 9.96399851
O 8.15462279 2.16298056 2.70483967
Pu -5.86063265 -1.29619843 5.68756727
O 0.40901811 0.41132564 -10.43894813
O 4.84563524 3.08411170 -1.07938016
Pu 6.87275193 -1.04180672 -4.27412982
O 6.73260406 -5.05752958 -1.63090013
O -2.28652772 6.27138728 -6.31744308
Pu 1.70488575 -9.71731615 1.79685257
O 6.40657189 5.26725330 0.70153831
O 10.83102116 0.92770981 -2.04866476
Pu 9.51563994 3.45179781 1.39460691
O 7.42842652 -4.81630161 2.69577621
O -1.10616003 1.29825632 7.57441557
Pu -3.34750400 -1.57964900 -1.81020800
O 0.11834717 7.20338848 -7.19790661
O -0.53006516 -1.62222157 -12.13029103
Pu 1.82990896 7.18353193 -6.08772737
O -9.89609217 -4.99261153 -3.04427555
O -0.64981539 -12.08146695 -1.97314620
Pu 1.95646916 -2.53543269 -0.60020613
O -7.13046157 0.54862612 -0.54194187
O -4.72693486 -4.09880130 9.76102217
Pu 3.22303395 -9.43931083 -1.97339498
O 6.08148347 -4.43819210 -6.56361712
O -0.48575663 -4.70615345 -2.68737996
Pu 3.12050609 8.57853089 0.10112543
O 8.73963408 0.04193765 -3.70565479
O 3.57630275 -6.33254591 -6.87168149
Pu 2.59580342 -7.26339716 -5.01128322
O -4.16994249 4.17483239 -5.23872715
O -9.50428692 -0.22162413 -1.07705043
Pu -3.06405187 7.71924013 -2.61925179
O -0.67389276 -5.36231616 2.30218512
O 5.29589167 5.05083457 -7.89258988
Pu 5.22895723 -8.42756009 0.33368940
O 1.10765200 1.89126000 -4.74326400
O -3.35021325 3.64796869 0.37478624
Pu -4.06551753 1.15288882 -3.63017293
O 1.61267682 -4.24143251 -11.16876230
O -5.88975177 -7.62533546 -1.89078635
Pu 7.62760500 -3.05744000 5.98803500
O -4.62712959 -1.94414992 -7.30041296
O 6.76597121 -1.52572728 7.01397774
Pu 6.53558424 6.80724394 7.39835437
O -0.95046744 5.00485051 0.78524815
O -8.62850930 1.70068130 7.89808869
Pu 7.85752158 3.74454919 7.64160482
O -2.81352043 -8.81011422 -3.00020182
O -2.43313804 -2.41225991 9.40863295
Pu 5.97114902 3.90139549 -2.68980355
O -10.04400634 2.28649724 0.95943800
O -1.20201558 -3.93172486 -6.37564183
Pu -0.52413900 -3.18415400 3.35520300
O 7.47919392 -0.98147658 4.50365506
O -4.18604600 5.94416900 -1.56651900
Pu 2.85573984 -2.12016573 2.61048003
O 3.81341576 8.82144019 5.89756793
O 5.29206730 -0.04472777 -2.81926162
Pu 3.09147095 2.19111446 3.31225095
O 2.37101934 -2.92473216 -6.97022405
O 7.91933985 2.88620721 9.33941972
Pu 1.03809544 -11.86368262 -0.95480981
O -7.75189710 1.81817554 2.66390235
O 0.18789596 -8.74415748 1.04489542
Pu -6.56887948 -8.09877298 -0.07001212
O -7.41534131 -0.60443146 -6.66654184
O 2.80955810 -3.92107976 1.69934995
Pu 6.82695481 -2.78285701 -7.61971912
O -4.16637773 -9.26692127 -5.18366654
O -0.83571861 -2.26623738 -1.30729918
Pu 5.81230415 -6.96531268 -2.73049812
O 6.90824105 -7.16255162 -0.23755318
O -8.36069044 -5.05589573 3.47046881
Pu 3.39384900 4.64812700 -0.59715100
O -9.92039207 -1.80743368 -3.52845470
O -6.09678747 -3.67803607 1.37254076
Pu 0.14680964 -7.83043136 -7.22701810
O 6.16250626 -1.83777772 0.59540985
O -5.62948211 1.23253128 5.44257336
Pu -5.57849011 -3.77130399 7.89742745
O -2.54353669 -6.05019051 0.28530800
O 1.46219130 2.34968642 -8.86781116
Pu 6.22853200 3.22405100 1.69602500
O -6.88500354 -1.86368748 7.36419317
O 4.82514664 7.44014587 3.28869153
Pu -3.52517100 1.56570200 0.61903500
O 1.26836953 5.08301047 -0.87122212
O 0.13570576 -2.74472585 0.74958836
Pu 8.80712727 0.56820967 3.78850840
O 5.13677828 2.63722855 4.20697269
O 0.12746307 6.85993167 -4.88399567
Pu -4.54505100 -5.68957800 -0.33778600
O 1.39470100 -3.64499900 3.37879900
O -6.77757414 4.29919750 -1.68116561
Pu -1.97818166 -0.17303795 8.94894305
O -5.60764393 -1.67953446 3.49010143
O 8.96529389 0.33496460 5.77193383
Pu 2.27211921 -0.82790356 -7.04929156
O 6.43894811 0.32042062 -5.64798899
O 2.48361400 -9.61669910 3.72316504
Pu 8.04205270 1.96645604 -4.94469548
O -3.75287453 -6.13568745 2.24749242
O -0.27279756 6.19330430 -9.77783588
Pu 3.05786803 7.58462281 7.23797777
O 6.36404248 0.54961654 8.57560350
O -1.25439383 -1.00171276 2.53591178
Pu 8.62009068 -4.30189072 -2.81096684
O -2.53251747 5.63386350 -3.36507820
O -2.49091256 0.38411984 -2.06791380
Pu -5.34432761 5.03781614 6.18755282
O -6.28871419 -5.47982451 7.06379548
O 1.33555459 7.79326659 1.13080049
Pu 5.75567043 -4.34732649 -4.67610251
O -0.30963883 -1.95087703 5.87536672
O -0.15736600 -0.86257100 9.04014200
Pu 4.36918489 7.08037864 -3.43194756
O -2.84404997 3.43547358 7.50779876
O -7.54139461 -5.90233697 -1.06653348
Pu 2.26097961 0.77144239 -9.88419597
O 2.02975342 -0.98624347 0.75485420
O -7.31985320 1.28521381 -3.06259680
Pu -0.53902400 -2.68577400 -3.70563800
O 6.93660808 7.96720793 5.79677007
O 9.14022915 4.43565067 3.19519734
Pu 7.99336481 4.76748296 4.68129750
O 11.53444174 -1.11885256 -0.39884658
O -2.27091302 1.68539316 9.95879366
Pu 2.57483096 -5.99568052 1.52772379
O 0.14513982 -6.40707213 -0.50077935
O -10.59386305 -0.05011698 6.17354276
Pu -7.49308200 3.40023520 7.97575403
O 8.17490719 5.79595092 7.35448089
O 1.89065492 1.12572728 -2.32399984
Pu 10.50774737 -1.13337967 -2.19173278
O 1.32063152 -2.52249355 -2.95976019
O -4.32023496 -0.05515271 1.99474621
Pu -7.46658500 -1.41535300 -1.85640500
O -5.03904288 -1.35138836 -3.57992767
O -2.42067402 3.07385433 -6.59386477
Pu -6.04583818 -1.64075145 1.52375481
O 4.59127734 -5.75221328 -1.62258685
O 8.96288475 3.38483166 6.09029136
Pu -9.79558440 0.23169630 -2.99736833
O 9.48641326 -5.37203161 -1.20242387
O 3.07755253 -0.87574759 -1.49468390
Pu -7.56684747 7.18477144 3.01732540
O -1.60264664 8.92118656 -3.62144752
O 1.98140252 -7.98879762 -1.77032379
Pu -2.81996975 -4.06194508 10.34379135
O -3.74745988 8.96887527 4.71728219
O 4.65901752 8.21902594 -1.64452091
Pu -8.88266169 -3.54697232 -3.95754717
O 11.29132370 2.41667106 0.78449580
O -9.37825888 2.11793461 4.92098351
Pu 3.69251402 3.88494715 -8.41380062
O -0.99316660 -5.53215847 7.84853496
O -3.90761615 -7.06370538 4.29593277
Pu -8.95255321 4.13002205 -3.77946651
O 3.17679633 -7.38097575 0.14496674
O 8.89388730 -1.99995042 2.74540362
Pu 1.27578283 -2.21004871 -11.57014380
O -3.96346147 7.21613235 -4.30659093
O -8.45223518 -3.41286020 6.15186987
Pu -1.54273497 3.45032681 9.31226419
O -4.47102943 -8.12567665 0.42797170
O -2.00391266 -2.13208078 -8.53496051
Pu -2.43078849 4.93938064 -0.91309256
O -2.00003277 10.14366490 3.66315656
O 4.61565144 3.87769696 -4.35322492
Pu -3.76495979 1.95125129 6.46098832
O -4.69692049 -4.03165315 -1.69239379
O -0.96068956 -0.50690822 -3.56770360
Pu -1.53704573 -7.34633671 2.55357608
O -1.78365879 -4.48253886 5.00118853
O -7.64368125 -0.26654062 5.38807635
Pu -0.36310486 2.24859855 5.74888764
O 0.75221610 -4.39285889 6.15278662
O 5.36307455 -7.79089040 2.28200717
Pu 3.01887606 -1.11560098 -3.55612220
O -7.15480664 3.59524229 5.69136433
O -5.53613566 -1.66798022 -0.71301796
Pu 7.42347214 0.55126761 6.89002427
O -4.34753972 5.77470237 1.89219587
O 4.46488820 -5.87051819 -4.20442933
Pu -7.49225330 1.63320315 4.69004498
O 1.55125799 1.24236490 4.63664824
O 6.28249620 -0.94162906 -7.74727462
Pu -8.80092296 -1.48769951 6.30146909
O -9.16452391 5.01013582 -1.90702463
O 8.63451400 -3.82478200 0.67165800
Pu 2.35324568 -5.93969851 -1.95718602
O 11.10475146 -2.87092447 2.40456768
O 7.24085767 -2.72264145 -5.46299861
Pu -1.31722597 8.35824649 -5.59845557
O 7.00391234 -2.94006537 -2.73210092
O -10.14623702 2.29242341 -3.40217814
Pu -3.91759493 7.07136205 3.92418813
O -1.19596382 7.77518827 5.97212226
O -0.70449943 -3.48865962 -10.26064249
Pu -5.91143464 -1.26544397 -5.59520156
O 3.47601400 -0.16866400 -5.65721700
O -3.36048766 -0.07526223 7.21393748
Pu -3.58598312 -10.06202496 0.11828484
O -3.74819238 7.24888528 -8.39319042
O -8.10715335 -3.21877999 -2.17588342
Pu -4.81988736 -8.75871317 -3.17019981
O 1.52768947 -4.49304613 -0.51841939
O -2.23211582 6.83544402 -0.12326781
Pu -6.27375108 3.96149211 2.48101755
O -0.24144979 -8.16239628 -3.13496949
O -5.73460650 6.79648291 4.88274323
Pu 8.26053712 -5.82533975 0.46328802
O 4.28596837 2.75812210 -6.83835606
O -3.60759185 9.76380360 7.00329290
Pu -0.60332443 1.46977738 -2.54085241
O -2.91435387 -3.05327472 3.41856534
O 3.38958375 -1.25247073 6.07095677
Pu 5.43694111 8.67207102 4.63035752
O -7.94409758 4.81116469 3.37378265
O -4.18442769 8.73185930 -1.16925306
Pu -2.60747770 4.08070947 3.00591046
O 1.66811769 -7.55235843 2.93047510
O -7.88860430 -1.07009925 1.07476767
Pu -7.64738131 1.15182259 -5.89929136
O 7.04146389 3.75854653 -4.65203722
O -6.35840542 -9.24301621 1.75118881
Pu -7.79362342 -5.03911431 1.38423417
O -2.71510335 0.01368432 -10.01497555
O 7.34293524 -5.70295001 -4.00364602
Pu -1.12578094 -10.02994176 -3.15183109
O 2.87050448 5.66767290 7.81174556
O 0.19782414 -0.15160494 -7.25158720
Pu 0.08358869 -8.45340546 -0.91950498
O 3.63450868 -3.27872294 -1.56642827
O 6.64468737 -4.68296303 5.17288893
Pu 0.82705318 5.80468762 -3.04872159
O 9.70225377 -5.91909180 2.22747453
O 0.02958260 1.36252798 -0.16916572
Pu -3.26056233 10.85040093 5.46552406
O -1.81365887 -8.51617988 -7.72228116
O -2.95754037 -2.99475061 -3.04761611
Pu 6.28996450 7.28056545 -0.78483436
O 3.47127898 0.27488016 -8.12207670
O -2.77384617 8.72929716 -6.77848556
Pu -0.43610341 -0.63311314 0.02560054
O -3.00447972 -9.16273004 2.06622581
O -0.72382740 -7.57741069 4.38897858
Pu 5.59066714 4.50100171 -6.04044076
O -1.12229651 3.32420414 -1.44252064
O -5.17576862 4.64996370 4.07604935
Pu -0.87077900 -4.69125300 -0.08285600
O 7.15078130 2.45263848 -6.93865801
O -2.16075656 6.50996222 3.17369115
Pu 4.96185552 -1.12881640 4.64462625
O -4.16171398 -3.15852081 -5.36274542
O -7.68827932 3.43528004 0.39629610
Pu -4.44873187 7.31252256 -6.41796965
O 3.57927935 3.26383162 7.00024309
O 1.24661175 6.96162668 6.26750819
Pu -7.32488649 -4.92151933 5.35393770
O 3.97757276 -8.09858471 -3.44829673
O -8.06780065 -0.98571374 -3.92273368
Pu 1.21363546 -1.32471430 7.32836629
O -4.98270872 5.58526067 -7.11031600
O 1.45354622 -6.27075505 -3.78101474
Pu -1.81247069 4.46424023 -4.96449501
O -8.55159437 -7.90787896 -0.49548597
O 3.20357588 5.37824125 -2.56454277
Pu -6.53210015 2.27465257 -1.50438151
O 7.80211232 8.19685179 -1.75039576
O -3.31142546 -4.10160517 7.57865896
Pu -5.13077411 -7.96733059 2.76552829
O -1.56595508 -9.63676552 -0.98945151
O 0.00067644 -3.33307501 8.35014095
Pu 10.32235229 -1.39696118 1.17235830
O 5.50598700 0.23549900 6.09529200
O -5.08335226 -10.07896790 -1.36347140
Pu 3.63087643 -4.75440998 -7.94743979
O -4.86344825 3.15224709 -3.16609422
O 5.28751536 -8.94735715 -1.61462923
Pu -5.11247300 -3.80671200 -3.69379300
O 1.29303895 -4.57944392 -8.78549354
O 9.27731373 -3.75329545 5.24807455
Pu 4.92094192 4.21278398 5.58683441
O 0.26604382 4.41198712 -4.45107561
O 3.84658393 -6.27755050 5.05715120
Pu -4.04940597 -4.82163378 3.88765268
O 7.20799179 2.62115058 0.09698135
O 3.08215349 -9.71873565 0.21738710
Pu -0.00308776 -3.11878618 -7.92975424
O -1.01751825 10.34615592 5.96606849
O -7.12614826 5.61722427 1.54346152
Pu 8.23578822 1.15668820 -0.98455177
O -0.98647711 -4.93314091 10.78940428
O 9.16190985 -0.71252680 -0.34766826
Pu 0.49990503 -4.97539548 9.35124210
O -2.91531369 -5.81613692 -8.00587127
O -3.93606900 -1.51681700 5.52390600
Pu -3.22208238 -0.87491558 3.56130496
O -1.53813337 2.34798736 -4.20869510
O 2.18811441 -4.00442418 8.57692959
Pu 9.93383480 -4.18522386 3.34307119
O -0.31637438 4.90537453 4.17646659
O 4.90899157 6.41223522 6.06572783
Pu -3.36882932 -4.13193890 -6.79373332
O 2.59712945 4.64812267 -6.24528425
O 0.65141200 -10.09430730 -2.10824152
Pu -1.16361774 -1.15704057 -10.39029455
O -1.83291589 -7.11851927 -5.66275311
O 9.60989372 2.96072058 -0.75457274
