420
ML-kMC step 4000
Pu 1.56925270 5.42008715 3.94550507
O 2.31991739 1.14209258 7.40586578
O 4.87223785 -2.39917636 -3.95826538
Pu 2.55905451 2.99262895 -4.98085240
O -5.32152711 7.76451159 2.40439366
O 9.30330229 -2.54114069 -3.29686350
Pu -7.62192961 5.70031442 -0.55436680
O 2.97175397 -11.44433063 -1.47429530
O -6.85272591 -3.24155347 -4.60845922
Pu -3.94724246 3.37711079 -7.44493265
O 1.06011723 -6.76804687 6.03037771
O 4.70034144 7.63166092 7.77021745
Pu 5.66730542 -5.73665916 3.61876829
O 2.49261254 2.83031333 -0.01606617
O 5.40385135 5.92906736 -4.51457650
Pu -1.31986875 5.35652317 5.92331989
O -5.48738997 0.74623636 -5.13612766
O -4.49975601 1.24449850 -1.28110443
Pu -5.19605641 5.11117572 -3.32795257
O 7.40540647 2.28767641 -2.46041406
O 4.10357797 -0.61345511 2.94991497
Pu 1.78295173 3.90913705 7.95710012
O -4.40919256 1.42793039 -7.95042171
O -6.33478886 7.20204931 -0.74067972
Pu 0.22768819 -5.23122736 -9.86983891
O 1.93241290 7.59067462 -2.33295670
O -5.37543803 2.60121867 7.22466557
Pu 5.35176804 -3.52071970 -1.18658603
O -1.35061094 2.65589923 1.88663730
O -0.22669753 3.48504184 7.39214541
Pu -0.62450136 6.78201625 1.52934206
O 4.77148146 -5.55724747 1.67037268
O 0.93963761 4.30375044 5.67882173
Pu -3.37084258 -0.33241764 -7.59094970
O 0.48752280 -6.11855728 -5.82956642
O 0.81652209 8.71422697 -4.68046635
Pu 0.36141194 3.15265334 0.63617357
O -1.88760521 4.05852472 -8.51715047
O 5.07164400 -2.86491536 3.67906324
Pu 0.02821051 3.91235607 -8.96527162
O -6.29663788 5.13574234 7.72579986
O 1.16496233 -1.66298883 -8.89415503
Pu -3.82586375 -7.20388997 -6.50643049
O -4.34705203 -5.46615193 -5.76420263
O -5.92455651 -5.60102361 3.75096689
Pu -0.89810439 -5.86492202 5.88790855
O 5.98639987 2.59901856 7.07275515
O 0.80161662 -11.08408030 1.09269530
Pu -2.65369798 7.70934594 7.26157470
O -2.17825998 1.95296276 4.87641482
O -8.92322423 5.97376910 1.10055875
Pu 5.32687185 0.93758131 -7.32766798
O 3.03987656 -6.56253404 7.91579108
O 0.34547510 7.40849126 3.41620693
Pu 4.41350193 0.99842395 7.56668514
O -3.68077070 -5.86620323 -3.07986090
O -9.05306611 -4.32724554 0.31047813
Pu 7.27729831 -2.82689346 1.93511539
O 1.78447494 3.77069783 2.75729967
O -0.85381309 7.24421998 -2.27909387
Pu 0.28034178 8.95241463 -2.49449632
O 4.89913113 8.26972336 1.00750742
O -5.93749449 -6.44124419 1.19806820
Pu -1.72675272 6.77259278 -8.31273524
O 4.19559543 6.45772237 0.04180739
O 4.18273108 2.10905128 -9.08596090
Pu 2.16136166 -7.71074260 4.60669206
O -4.64346258 2.88464084 2.39198263
O 1.60502121 9.36652048 -1.02027133
Pu 2.57892413 -5.23703682 6.54256019
O 2.93990742 -0.92907460 -10.56081481
O 0.50316906 -7.05988835 -9.00358367
Pu -8.90954840 4.70389773 4.99090610
O 9.25880567 0.58475594 1.86775872
O 4.79362562 -3.05908242 -8.23755222
Pu -0.73186891 -6.62464175 -4.14491837
O -8.44820165 6.73945917 4.50677035
O -7.01480873 5.00601135 -4.09005400
Pu 5.11531713 6.14225429 1.91632918
O 4.41305041 4.44388851 1.39604154
O -8.56752478 2.76108218 -5.17714788
Pu 11.13688415 2.55852835 -1.24137949
O 6.44205590 4.82323866 6.03167595
O -1.73217993 6.03365204 8.21046425
Pu 3.57215608 1.12636880 -0.82096929
O 0.75144979 -1.40070805 -5.54788396
O -5.52948427 -3.54798514 5.48783430
Pu -0.75546525 0.79597535 -5.64673541
O 3.48945633 4.89275961 3.89754704
O 3.32613654 7.62014581 -4.92888352
Pu -10.63441772 1.92799695 6.34095682
O -9.23474450 3.67574593 6.95683838
O 12.00699988 3.81821863 -2.37450411
Pu -9.40747653 4.05504131 1.78966987
O 5.54328136 5.81720300 -2.03022112
O -2.93167280 4.30654881 5.19118921
Pu -8.96232551 0.61616156 0.55825467
O -10.12234465 3.94644762 3.70825961
O 1.12360075 -8.57852531 -5.21917910
Pu -9.18391374 -5.59687196 -1.25146953
O -2.71989209 -0.55612648 0.13150624
O 1.92620680 4.62452506 -9.06842949
Pu -1.59113692 -3.14738424 6.94993074
O 4.40040264 1.70450173 1.44820664
O -3.45894074 6.38998130 6.02689028
Pu -4.63800540 7.23527531 0.42451965
O -2.84388217 0.02322696 -5.71276889
O 6.52384711 4.85252099 3.07581038
Pu -0.73748805 8.69900011 4.61434207
O 0.72054040 4.05336995 9.64780625
O 7.70141221 2.14123956 3.07066664
Pu -5.69455335 -1.44426636 5.52914904
O 0.43984385 0.12573073 -10.49888318
O 4.79672306 3.37573185 -1.01694519
Pu 6.66566377 -1.18267333 -3.95703388
O 6.66124229 -5.15824280 -1.52611106
O -2.23651853 6.13493838 -6.28122031
Pu 1.72528516 -9.49751740 1.87752385
O 6.54129648 5.52756507 0.69885426
O 10.09518397 0.94165384 -1.59234864
Pu 9.21612699 2.90648571 1.68875697
O 7.33533073 -4.76431410 2.61752112
O -1.19867238 1.29395212 7.28462557
Pu -3.51093359 -1.50525275 -1.61447434
O -0.08743209 7.30656245 -6.91716163
O -0.45711763 -1.59461555 -11.76416459
Pu 1.75035350 7.10640486 -6.09212136
O -9.58512023 -5.17301927 -3.25960132
O -0.96154571 -11.66483662 -1.99867773
Pu 1.95646916 -2.53543269 -0.60020613
O -7.31188024 0.60437346 -0.61845504
O -4.79602663 -3.79766631 9.50566753
Pu 3.39248170 -9.54582433 -2.05699410
O 5.73184265 -4.45568576 -6.60154721
O -0.51255419 -4.70468208 -2.67976838
Pu 3.03179487 8.24654572 -0.15633057
O 8.53661699 0.10961350 -3.60381146
O 3.45284781 -6.08720693 -6.40657008
Pu 2.72975906 -7.27700296 -4.99800089
O -4.06963904 4.19660164 -5.01028086
O -9.20486255 -0.33431238 -1.15492090
Pu -2.90225357 7.69788338 -2.50731444
O -0.51784915 -5.22349172 2.23011773
O 5.17483665 4.93582266 -7.71160236
Pu 4.99321060 -7.85241551 0.48003209
O 1.06843064 1.73736736 -4.86388511
O -3.35021325 3.64796869 0.37478624
Pu -4.06551753 1.15288882 -3.63017293
O 1.57629066 -3.95785910 -10.68947222
O -5.64362004 -7.27965617 -1.77414331
Pu 7.50990072 -3.06776763 5.87316211
O -4.51431702 -1.97405369 -7.20824549
O 6.16803031 -1.47444231 6.44690974
Pu 6.37446247 6.71324343 7.36695793
O -0.95046744 5.00485051 0.78524815
O -8.40591499 1.66446852 7.29368802
Pu 7.69779692 3.66515127 7.47030569
O -2.76790795 -8.63629944 -2.98424261
O -2.35023587 -2.11503705 8.76499341
Pu 6.05971914 4.00506619 -2.63561245
O -9.81591401 2.44348091 0.82527775
O -1.12758239 -3.68485211 -6.16615024
Pu -0.53252352 -3.29362140 3.22265714
O 7.19868167 -1.49988833 4.33945614
O -4.18316205 5.80497856 -1.53071952
Pu 2.79534896 -2.23615529 2.56892318
O 3.70344318 8.78614152 5.72157009
O 5.25206880 -0.09570637 -2.77297746
Pu 3.09147095 2.19111446 3.31225095
O 2.32764224 -3.00323412 -6.95831388
O 7.27995522 2.66328897 9.10512606
Pu 0.92753670 -11.58019465 -0.85114552
O -7.75189710 1.81817554 2.66390235
O -0.02199460 -8.51409041 1.14315639
Pu -6.77143224 -8.18058052 -0.40430469
O -7.71540766 -0.55084989 -6.39027440
O 2.80074869 -4.05677528 1.25049233
Pu 6.54931767 -2.78097018 -7.39653771
O -4.18297120 -8.44060041 -4.96918869
O -1.14073530 -2.60803857 -1.20460366
Pu 5.76103027 -6.91074235 -2.71134276
O 6.60356795 -6.97945904 -0.26022673
O -8.07066732 -4.69298950 3.36377511
Pu 3.38904298 4.68542227 -0.53199658
O -9.80936021 -1.71353321 -3.01730894
O -5.92410665 -3.97879109 1.47177338
Pu -0.01442671 -7.70055071 -7.05210220
O 6.05257145 -2.31493655 0.32408548
O -5.53422545 1.25900408 5.33207667
Pu -5.72013948 -3.72270288 7.74990666
O -2.13587229 -6.06422997 0.24633926
O 1.56390202 2.39765375 -8.69534970
Pu 6.11878902 3.25694388 1.73639653
O -6.85406396 -2.04478876 7.26281851
O 4.82508208 7.43221193 3.28821589
Pu -3.57749864 1.50127207 0.66010167
O 1.25122073 4.97439925 -0.78018357
O 0.10424298 -2.73487519 0.73318369
Pu 8.35947321 0.24692905 3.65809684
O 4.92649386 2.77627485 3.93979612
O -0.19595373 6.63199951 -4.63623783
Pu -4.54505100 -5.68957800 -0.33778600
O 1.43147464 -3.32794465 3.50980372
O -6.63536111 4.36546021 -1.83240889
Pu -1.90028732 0.09741321 8.70605145
O -5.64313939 -1.68631102 3.55108121
O 8.72303018 -0.09661665 5.65809519
Pu 2.26900422 -0.86536529 -7.06126005
O 6.46437305 0.36230908 -5.37673372
O 2.38396732 -9.44428349 3.73340655
Pu 7.74294128 1.90281507 -4.66085335
O -3.52689245 -6.08047983 2.26838269
O -0.20566879 5.85810021 -9.11471550
Pu 2.95459510 7.39631179 6.88213930
O 6.06687053 0.13278758 8.29288791
O -1.14144239 -0.79995833 2.75106655
Pu 8.31927868 -4.30344147 -2.70364080
O -2.39455093 5.44597695 -3.15286894
O -2.49091256 0.38411984 -2.06791380
Pu -5.25182800 5.09938089 6.07573367
O -6.50777636 -5.38068332 7.07970806
O 1.04567958 7.59612443 0.94463624
Pu 5.54473235 -4.32160914 -4.62788078
O -0.08526327 -1.91143217 5.89917899
O 0.04386959 -0.77213277 8.81074536
Pu 4.40800651 7.10062527 -3.34434419
O -2.68382747 3.38582032 7.38043457
O -7.29187382 -5.65221799 -1.00755840
Pu 2.43262877 0.86136596 -9.78593919
O 1.87779606 -1.08860444 0.88063799
O -7.13877612 1.30368827 -3.07674708
Pu -0.67229354 -2.82484975 -3.71867088
O 6.81363095 8.03766690 5.63778190
O 9.04336741 4.20273949 3.17587799
Pu 7.87552708 4.75306185 4.58875846
O 11.37909761 -1.26790525 -0.76543404
O -2.20254280 1.92260175 9.64257163
Pu 2.34716794 -5.88054786 1.68149383
O 0.26996657 -6.43092811 -0.63105502
O -10.16273970 0.10891269 6.05503182
Pu -7.17963243 3.26840209 7.69893639
O 8.17551290 5.64161848 7.32727066
O 1.92176626 1.27368322 -2.39747995
Pu 10.08658031 -1.12066228 -2.16488189
O 1.29401160 -2.30643850 -2.77750538
O -4.46808782 -0.00600936 2.05644463
Pu -7.46655647 -1.41497156 -1.85746679
O -5.06951682 -1.31782526 -3.45346994
O -2.25273678 3.00759566 -6.39741682
Pu -6.15582912 -1.97850811 1.70418750
O 4.50799702 -5.65809997 -1.65960067
O 8.46766653 3.10349993 5.79591264
Pu -9.60187163 0.22964579 -2.96942257
O 9.08868411 -5.00386027 -1.07751117
O 2.93436741 -0.90459117 -1.52948885
Pu -7.06212581 7.01267029 3.05538123
O -1.57296799 9.18988365 -3.64308674
O 2.05756678 -8.05004971 -1.83139986
Pu -2.73384359 -3.91025369 9.67363025
O -3.60359886 8.67965308 4.53522476
O 4.63974359 8.35187496 -1.59218537
Pu -8.74429263 -3.41159834 -3.99710039
O 11.02034505 2.32120027 0.71972046
O -9.32232471 2.12538307 4.93071344
Pu 3.57598967 3.88637212 -8.25194060
O -1.02155373 -5.29960337 8.04333161
O -4.18569655 -7.03943041 4.43066109
Pu -8.66401494 3.88107268 -3.55837779
O 3.07665039 -7.10826229 0.09499463
O 8.55800047 -1.52933129 2.79529654
Pu 1.41149005 -2.06724173 -11.09938281
O -3.97583482 7.04928578 -4.08916680
O -8.26565497 -3.28905422 5.84026470
Pu -1.37878758 3.67107030 9.07343793
O -4.46405306 -7.92542182 0.41465618
O -1.93919556 -2.05166901 -7.78966132
Pu -2.41754375 4.84570997 -1.01747898
O -1.98419327 9.86401003 3.51993501
O 4.56466294 3.48348867 -4.18978779
Pu -3.63709819 1.80985369 6.34489597
O -4.92691666 -4.07740430 -1.57363178
O -0.85795481 -0.40050517 -3.65876042
Pu -1.59671200 -7.13971458 2.32368761
O -2.06252330 -4.47279323 4.99768575
O -7.53049697 -0.22657335 5.36905725
Pu -0.21592414 2.20091783 5.60445812
O 0.70653951 -4.61503976 5.74636010
O 5.31818133 -7.74474632 2.49536132
Pu 3.24893887 -1.24130805 -3.60481680
O -7.37759884 3.57130039 5.26799946
O -5.52885429 -1.44824339 -0.80893211
Pu 7.38896246 0.51965499 6.88554143
O -4.46442713 5.51211485 1.94479823
O 4.33178030 -5.92746567 -4.07967462
Pu -7.34917334 1.60714472 4.59086819
O 1.56658169 1.31755526 4.59843446
O 6.35017292 -0.79631886 -7.60601359
Pu -8.70785118 -1.47181970 6.23507455
O -8.96134581 4.75687120 -1.74099554
O 8.50920778 -3.59608626 0.69297147
Pu 2.31161679 -5.88269608 -1.89862214
O 10.27015209 -2.54736190 2.07924987
O 7.02548249 -2.76948186 -5.29182079
Pu -1.23219505 8.21955989 -5.49379479
O 6.71876072 -3.07558707 -2.77444410
O -9.69133521 2.16159435 -3.24488861
Pu -3.91643576 6.90269497 3.89022045
O -1.30402463 7.28300136 5.87271245
O -0.53663965 -3.17489875 -9.75424511
Pu -5.80444702 -1.48972719 -5.57387643
O 3.59385331 -0.27486560 -5.62756198
O -3.54734241 0.05035177 7.29536225
Pu -3.24231363 -9.79704210 0.18833209
O -4.01224180 6.61402233 -8.21677682
O -7.93344420 -3.39701695 -1.91686349
Pu -4.68518372 -8.46992186 -2.99330726
O 1.49707573 -4.57458074 -0.52521400
O -2.32857199 6.84340248 0.03531907
Pu -6.24440016 4.06014738 2.25310529
O -0.23796131 -7.93724016 -2.85124776
O -5.75737710 6.80716245 4.78819641
Pu 8.03857090 -5.77849521 0.39754306
O 4.27535772 2.81411395 -6.73022881
O -4.01936991 9.03630408 6.68629788
Pu -0.47024432 1.54206723 -2.54001416
O -2.79384994 -3.21397895 3.23162366
O 3.25176647 -1.41321113 6.19536354
Pu 5.32230324 8.69014996 4.63364166
O -7.81779348 4.61907962 3.22582442
O -3.85589282 8.58493356 -0.83545148
Pu -2.60747770 4.08070947 3.00591046
O 1.67652150 -7.41980407 2.70429234
O -8.02666675 -1.03588999 1.03530469
Pu -7.35116962 1.18400129 -5.69684865
O 7.02347480 3.66382303 -4.56855763
O -6.73342338 -8.81670069 1.65020567
Pu -7.60091087 -5.15610503 1.50160739
O -2.74741479 -0.12164091 -9.65037836
O 7.16620086 -5.66226593 -3.83825719
Pu -1.18107264 -9.82093859 -3.10115658
O 2.71976271 5.56266274 7.66365689
O -0.02979013 -0.02960461 -7.65252711
Pu 0.11017602 -8.38839579 -0.92231950
O 3.42366386 -3.42863438 -1.48200377
O 6.54795192 -4.73689626 4.99750083
Pu 0.80901872 5.87400657 -2.78228806
O 9.31194773 -5.89132508 1.89290061
O -0.08027539 1.17967146 -0.35351719
Pu -3.34505445 10.52455074 5.22595645
O -1.85583239 -8.61908896 -7.36997731
O -2.86682061 -2.78127959 -3.09779636
Pu 6.28996450 7.28056545 -0.78483436
O 3.44924840 0.34658144 -7.93586557
O -2.84477186 8.16494286 -6.50739724
Pu -0.56970333 -0.80898020 -0.01767233
O -3.07681743 -8.80359539 2.02814617
O -0.72065247 -7.11090968 4.33074985
Pu 5.89679530 4.62192479 -5.94346541
O -0.95075650 3.29079154 -1.45773357
O -5.05515326 4.75137441 4.03836246
Pu -0.67999552 -4.76820609 -0.34014651
O 6.88464425 2.39386703 -6.52841466
O -2.17333217 6.49519874 3.18753682
Pu 4.92895452 -1.14115024 4.70021597
O -4.31809325 -3.00003016 -5.25337524
O -7.48621255 3.43250338 0.47621124
Pu -4.24913823 6.70916142 -6.15084869
O 3.59696740 3.14016751 7.06814383
O 1.04018593 7.07400643 5.66841571
Pu -7.13142531 -4.84905398 5.16038939
O 3.81785013 -7.96377370 -3.35117389
O -7.88576961 -0.94757650 -3.91306712
Pu 1.37583185 -1.33863222 7.29013790
O -5.19055933 5.10744138 -7.02715970
O 1.45354622 -6.27075505 -3.78101474
Pu -1.81247069 4.46424023 -4.96449501
O -8.79083633 -7.51755516 -0.47184309
O 2.97298106 5.31213991 -2.68283929
Pu -6.44660315 2.23554120 -1.41049304
O 7.70776767 8.35861015 -1.46823571
O -3.39258293 -4.03408669 7.56603843
Pu -5.07558081 -7.76545528 2.60051994
O -1.55283647 -9.36369192 -0.86481645
O -0.11775814 -3.29453671 8.30544870
Pu 9.99127650 -1.08335225 0.89029598
O 5.49476235 0.70284785 5.80498038
O -5.09904652 -9.52209417 -1.31371647
Pu 3.21096611 -4.53666698 -7.66725644
O -4.84567382 3.02747524 -2.98670835
O 5.42737671 -8.69441750 -1.45335288
Pu -5.02857187 -3.94874948 -3.58912483
O 1.29037067 -4.51263726 -8.26771890
O 9.14856697 -3.85197371 5.15645289
Pu 4.71135483 4.16857351 5.55518548
O 0.39090382 4.44690852 -4.38087383
O 3.67849669 -6.16556635 4.79730920
Pu -4.08380062 -4.85200115 3.85683121
O 7.38746237 2.45356610 0.17821957
O 2.91296072 -9.59938936 0.11806381
Pu 0.08157352 -3.02011003 -7.53286619
O -1.53102484 10.05756442 6.16127204
O -6.78276385 5.78277680 1.28020191
Pu 8.10455841 1.16220627 -1.09685715
O -0.80306317 -4.64246434 10.55567849
O 8.69465400 -0.67907166 -0.67939655
Pu 0.68877274 -4.88596513 9.29529987
O -2.54753255 -5.50084852 -7.94681704
O -3.69048619 -1.64289240 5.42200878
Pu -3.22208238 -0.87491558 3.56130496
O -1.47958604 2.44643454 -4.18149935
O 2.30197858 -3.88907499 8.21462816
Pu 9.51061967 -4.15111751 3.25603549
O -0.48785854 4.85135984 3.87554742
O 4.70603613 6.24070258 5.83246053
Pu -3.21053462 -3.95161719 -6.75234058
O 2.54575153 4.91336445 -6.31010351
O 0.59006794 -10.00686351 -2.00241622
Pu -1.13489110 -1.09134186 -10.05644743
O -1.91382358 -7.22190639 -5.55432435
O 9.25754722 2.71873819 -0.77150979
