420
ML-kMC step 1000
Pu 1.64910424 5.46106694 4.38285518
O 2.44786391 0.74083276 7.59580918
O 4.95004709 -2.65311703 -3.93070684
Pu 2.63501873 3.02415343 -5.03521390
O -5.71349748 8.18956391 2.25861085
O 10.00715086 -2.55028682 -3.25127002
Pu -7.65090143 5.87507712 -0.49665065
O 3.11017999 -11.67750621 -1.76129725
O -7.05462150 -3.30719178 -4.68571304
Pu -4.13862309 3.52261073 -7.42609510
O 1.02002336 -6.75247024 6.31995632
O 5.02979144 7.52800834 8.37890082
Pu 5.74488848 -5.83193753 3.72683239
O 2.30664335 2.65150224 0.23933678
O 5.79498320 6.33300049 -5.01796088
Pu -1.25721023 5.46773261 6.21896271
O -5.91585183 0.69525973 -5.06680374
O -4.34153146 1.13639709 -1.49945520
Pu -5.25091423 5.16464444 -3.35763925
O 7.70512045 2.28016354 -2.88707353
O 4.25606817 -0.73504218 2.77524011
Pu 1.67480900 3.92463200 8.19814000
O -4.52468401 1.18849098 -7.93069032
O -6.23892660 7.46642715 -0.90045898
Pu 0.27058372 -5.43572120 -10.36629182
O 1.79397312 7.72831638 -2.72332102
O -5.53692996 2.80712976 7.67619738
Pu 5.83461963 -3.23748355 -1.10834081
O -1.29562400 2.95778900 1.84911900
O -0.30018477 3.52875162 7.87647215
Pu -0.51076322 6.95708096 1.61230665
O 4.74778867 -5.46690085 1.78713455
O 0.78368400 4.17249600 6.06850100
Pu -3.53316079 -0.54551610 -8.25970348
O 0.97331953 -6.46570457 -6.45938880
O 0.64728990 9.03167179 -5.09082099
Pu 0.29764600 3.11177300 0.67131700
O -2.07585662 4.29079567 -9.27308799
O 4.66823800 -3.22794700 3.94265600
Pu 0.07476470 4.33809805 -9.31519670
O -6.67088885 5.19418468 7.68643109
O 0.76871824 -1.80526894 -9.48490308
Pu -3.54170657 -7.73113051 -6.75419548
O -4.73729388 -5.96379178 -6.25176584
O -6.12231916 -5.55806043 4.11578022
Pu -0.79031187 -6.06372048 5.84721936
O 6.32303823 2.47917943 6.49056199
O 0.91491754 -11.61653883 0.88762270
Pu -2.76152186 7.94205309 7.45897659
O -2.32455059 2.12016551 4.80501368
O -9.54449995 6.10162543 1.01720582
Pu 5.68164851 0.88245952 -7.91760296
O 3.36707456 -6.61866243 8.28921064
O 0.35273120 7.40098018 3.59365285
Pu 4.54468300 0.78074700 7.86967000
O -4.34249500 -5.99118700 -3.55614900
O -9.72843430 -5.03702310 0.46088183
Pu 7.33917300 -2.89513300 1.89059500
O 1.41436700 3.67548300 3.14296400
O -0.96218939 7.53532740 -2.14965727
Pu 0.17229714 9.36585523 -2.46523892
O 4.92142412 8.67063510 1.42901059
O -6.32100175 -6.41838007 1.05885909
Pu -1.80565466 7.20649049 -8.84679624
O 4.12033932 6.70553680 0.08581853
O 4.21775910 2.06863691 -9.79148682
Pu 2.26731463 -8.01306333 4.76778737
O -4.64631344 2.76907400 2.31550179
O 1.59535582 9.59509646 -1.12921610
Pu 2.61001362 -5.40877615 7.03277845
O 2.74557672 -1.17014231 -10.73101069
O 0.39300011 -7.28031922 -9.31607886
Pu -8.95581183 4.98761247 5.11212820
O 9.70619656 0.39320178 1.97429941
O 5.25229633 -3.41872079 -8.58574667
Pu -0.69765656 -6.59387314 -4.25847298
O -8.35785356 6.97633246 4.87662250
O -7.27485399 5.26576367 -4.53439346
Pu 5.11531713 6.14225429 1.91632918
O 4.18077659 4.38296510 1.31674963
O -8.71417656 2.80829454 -5.28899891
Pu 11.79916074 2.84906057 -1.44579906
O 6.45796619 4.74653745 6.61410732
O -1.99686158 6.13429343 8.15022641
Pu 3.75838300 0.92697500 -0.90412500
O 0.44813013 -1.34516948 -5.29400966
O -5.76111164 -3.25658779 6.17202814
Pu -1.00927100 0.89982800 -5.82001000
O 4.24910974 5.30495350 3.72820538
O 3.48824663 7.84237882 -5.25462289
Pu -10.97115818 2.19507702 6.26611561
O -9.87200785 4.04462008 6.69333701
O 12.95318788 4.13244562 -2.59152971
Pu -9.65202849 4.23213283 1.53971176
O 5.55675241 5.84769778 -2.03483796
O -3.15240186 4.36251890 5.36045270
Pu -9.14366758 0.66526764 0.57697494
O -10.21620281 4.44962424 3.67485239
O 1.13649144 -8.85998225 -5.62305028
Pu -9.62083836 -5.95718636 -1.45498236
O -2.52889153 -0.38019337 0.01352112
O 2.27325326 4.78583978 -9.81630476
Pu -1.69953846 -3.17774877 6.90725265
O 4.46765595 1.72300075 1.60965157
O -3.76024239 6.48014710 6.39266433
Pu -4.61631397 7.50410238 0.22751880
O -3.45938079 0.49776756 -5.68434719
O 6.71472100 4.67905700 3.33267000
Pu -0.66192715 9.12882270 4.55454278
O 0.79663637 4.30415900 9.95740668
O 8.37452600 2.65785800 2.65085700
Pu -5.85566069 -1.29134182 5.72503612
O 0.20161845 0.45120834 -10.78101516
O 4.91821597 3.06133233 -1.28652452
Pu 6.87275193 -1.04180672 -4.27412982
O 6.99368680 -5.19176820 -1.61879856
O -2.44520793 6.13729840 -6.33804675
Pu 1.92927255 -10.25359102 1.95379047
O 6.41467044 5.30096354 0.71250425
O 11.32732566 0.76313187 -2.16904887
Pu 9.88271278 3.52058761 1.46451510
O 7.39840917 -4.77802468 2.63963578
O -1.23315552 1.27606286 7.76329231
Pu -3.34750400 -1.57964900 -1.81020800
O -0.25862793 7.58964902 -7.23358209
O -0.56389760 -1.79026884 -12.48799415
Pu 1.75355323 7.08095751 -6.15052876
O -10.06364094 -4.88406709 -3.30660435
O -0.36283686 -12.62593638 -2.13930653
Pu 1.82555200 -2.56849500 -0.67833500
O -7.36897880 0.44317801 -0.63817426
O -4.69144160 -4.37505101 9.91089083
Pu 3.30502275 -9.72845412 -2.09377259
O 6.16269320 -4.49763558 -6.65156729
O -0.39484359 -4.57240775 -2.55359670
Pu 3.12050609 8.57853089 0.10112543
O 8.83051589 0.18606103 -3.60817145
O 3.63070591 -6.44992485 -6.84659600
Pu 2.56684623 -7.33358115 -5.12808542
O -4.26830805 4.10690247 -5.29121553
O -9.44904786 -0.18768232 -1.19379712
Pu -3.06405187 7.71924013 -2.61925179
O -0.91446706 -5.20400628 2.08403947
O 5.12791374 5.20850291 -7.97873851
Pu 5.34896500 -8.58485400 0.33954500
O 1.10765200 1.89126000 -4.74326400
O -3.33680370 3.71033483 0.35855061
Pu -4.23623020 1.04153235 -3.87348453
O 1.46507898 -4.25134245 -11.62602348
O -5.97023771 -7.70164865 -1.91242589
Pu 7.62760500 -3.05744000 5.98803500
O -4.65154744 -1.96013360 -7.31978404
O 6.96169100 -1.55725400 6.97866800
Pu 6.73199701 7.03057397 7.59315181
O -0.98910211 5.12009759 0.83965361
O -8.70728595 1.85724305 8.09739454
Pu 8.04309912 3.79096359 7.83528095
O -2.84800515 -8.94090254 -3.17577438
O -2.53892300 -2.31971200 9.62493400
Pu 6.10083070 3.96322610 -2.62862614
O -10.18418500 2.30647652 0.93628719
O -1.09560100 -4.19992800 -6.24295100
Pu -0.52413900 -3.18415400 3.35520300
O 7.39401100 -0.76132400 4.53710300
O -4.18604600 5.94416900 -1.56651900
Pu 2.84933518 -2.14584553 2.51813069
O 3.80907998 9.04734861 5.77526394
O 5.39143846 -0.35940367 -2.73261458
Pu 3.06782218 2.22157362 3.30928346
O 2.51779022 -3.12880033 -7.28568636
O 7.94308190 2.79971523 9.49631702
Pu 1.11826070 -12.22421495 -0.97930823
O -7.59529500 1.68277300 2.41328500
O 0.15097093 -8.95307787 1.26881926
Pu -6.59832051 -8.29163082 -0.05197312
O -7.37960374 -0.65146241 -6.63241367
O 2.80955810 -3.92107976 1.69934995
Pu 6.93055708 -3.03172260 -7.75549681
O -4.21852753 -9.45056398 -4.92840311
O -0.76481815 -2.18735792 -1.23175757
Pu 5.89822203 -7.04461373 -2.79316622
O 7.20461206 -7.61383835 -0.02034623
O -8.21556951 -5.01040505 3.47643985
Pu 3.39384900 4.64812700 -0.59715100
O -10.24987739 -1.86639513 -3.60337560
O -6.20909391 -3.79863807 1.56380638
Pu 0.15180600 -8.09479100 -7.47176300
O 6.16250626 -1.83777772 0.59540985
O -5.66628100 1.31387500 5.15268700
Pu -5.37494848 -4.11425119 8.02627472
O -2.54353669 -6.05019051 0.28530800
O 1.44739813 2.54607493 -9.23844866
Pu 6.22853200 3.22405100 1.69602500
O -7.16492354 -1.86663366 7.31260717
O 4.82514664 7.44014587 3.28869153
Pu -3.52517100 1.56570200 0.61903500
O 1.36994855 5.22847996 -0.90497068
O 0.17115858 -2.62202775 0.94751018
Pu 8.99830520 0.58035170 3.87035099
O 5.22436800 2.62989700 4.09796700
O 0.13859600 6.68009700 -5.01165500
Pu -4.54505100 -5.68957800 -0.33778600
O 1.39470100 -3.64499900 3.37879900
O -6.77757414 4.29919750 -1.68116561
Pu -1.96734862 -0.17129000 9.19660930
O -5.60764393 -1.67953446 3.49010143
O 9.09728170 0.30342684 5.84140655
Pu 2.27211921 -0.82790356 -7.04929156
O 6.92241700 0.34452000 -5.82567500
O 2.49399749 -9.65691763 3.73858199
Pu 8.04205270 1.96645604 -4.94469548
O -3.88046512 -6.40287206 2.22546461
O -0.33081102 6.38061173 -9.71953761
Pu 3.32580700 7.59555200 7.29557500
O 6.15316403 0.91500358 8.87623414
O -1.44437246 -0.90639119 2.04692633
Pu 8.91415320 -4.34517846 -2.95857999
O -2.54249100 5.60701804 -3.05675298
O -2.52227700 0.37946500 -2.01483500
Pu -5.35250300 5.04974900 6.24050500
O -6.29197032 -5.49235951 7.06660070
O 1.49223446 7.90044448 1.04418078
Pu 5.86025955 -4.41327676 -4.65282768
O -0.50559100 -1.78864100 6.03807400
O -0.15736600 -0.86257100 9.04014200
Pu 4.44704229 7.20026631 -3.59756650
O -2.56938630 3.28452042 7.75066519
O -7.68919964 -6.19576419 -0.83740729
Pu 2.32635847 0.70442014 -9.81475762
O 2.05227475 -0.99903684 0.82217047
O -7.51432395 1.21396847 -2.98772532
Pu -0.53902400 -2.68577400 -3.70563800
O 6.79193296 8.30752244 5.90947394
O 9.66599550 4.69338767 3.17491309
Pu 8.06429600 4.73016600 4.69743400
O 11.86791221 -1.25072438 -0.38130790
O -2.48149934 1.56603705 10.17486855
Pu 2.57817000 -5.98309000 1.77187400
O -0.17821761 -6.46336687 -0.86461510
O -10.85377519 0.11029108 6.29532014
Pu -7.64970520 3.48021121 8.14281011
O 8.52968855 5.97759165 7.70275895
O 2.02649542 1.23428252 -2.32163517
Pu 10.86700049 -1.14764023 -2.04554316
O 1.32063152 -2.52249355 -2.95976019
O -4.50285373 0.13053162 2.15051798
Pu -7.46658500 -1.41535300 -1.85640500
O -5.03904288 -1.35138836 -3.57992767
O -2.38302300 3.00707900 -6.69141100
Pu -6.04583818 -1.64075145 1.52375481
O 4.45315300 -5.90718600 -1.63960100
O 8.94562963 3.46479140 6.08640981
Pu -9.91193826 0.24529197 -3.23336729
O 9.50603533 -5.36861748 -1.27910873
O 3.07755253 -0.87574759 -1.49468390
Pu -7.26778108 7.18879539 3.01520137
O -1.80171623 9.40058110 -3.57477418
O 1.87250314 -8.29214829 -2.34924215
Pu -2.81998358 -4.08730152 10.39264194
O -3.39477672 9.03260578 4.85683634
O 4.89972416 8.43710144 -1.57328019
Pu -9.13154365 -3.35244941 -4.03251004
O 11.46035189 2.80775170 0.56556263
O -9.37825888 2.11793461 4.92098351
Pu 3.79079559 4.01583694 -8.87390183
O -0.94206136 -5.68247110 7.92968086
O -4.28516315 -7.10418047 4.59229736
Pu -9.26365594 4.25952595 -3.95092533
O 3.12525100 -7.38583100 0.17411500
O 9.18741371 -2.07947315 2.72801006
Pu 1.27980828 -2.22459092 -11.67119654
O -4.04081821 7.57656903 -4.28855893
O -8.68512164 -3.59457203 6.14233668
Pu -1.62153635 3.47021670 9.47472015
O -4.51638868 -8.15586128 0.48929056
O -2.16376693 -2.21161766 -8.83770639
Pu -2.43078849 4.93938064 -0.91309256
O -2.03275512 10.67492039 3.64804252
O 4.56193500 3.89600000 -4.32146000
Pu -3.95855292 1.97698344 6.47764687
O -4.63270665 -4.03323875 -1.68071014
O -0.96068956 -0.50690822 -3.56770360
Pu -1.53704573 -7.34633671 2.55357608
O -1.78365879 -4.48253886 5.00118853
O -7.58996411 -0.22127058 5.45692739
Pu -0.36310486 2.24859855 5.74888764
O 0.85051589 -4.29120183 5.97896675
O 5.36307455 -7.79089040 2.28200717
Pu 3.01887606 -1.11560098 -3.55612220
O -7.21251101 3.64032547 5.89738613
O -5.45796747 -1.51613841 -0.66350445
Pu 7.48780044 0.56357936 6.85890902
O -4.55289800 6.04433500 1.71621400
O 4.92898011 -6.05538629 -4.25812787
Pu -7.51221500 1.60634500 4.71252900
O 1.55125799 1.24236490 4.63664824
O 6.57210691 -1.13442867 -8.32690564
Pu -9.25259370 -1.62294624 6.69561785
O -9.09598426 4.99498708 -2.06292933
O 8.63451400 -3.82478200 0.67165800
Pu 2.42707500 -5.79945600 -2.17246700
O 11.19897669 -2.85512739 2.42656349
O 7.24087300 -2.72265300 -5.46299700
Pu -1.43412796 8.44314905 -5.65616901
O 7.58633200 -2.77305200 -2.69094900
O -10.35765125 2.25835381 -3.38537735
Pu -3.94830300 7.21844498 4.20302907
O -1.20584133 7.83956522 6.02137615
O -0.43191498 -3.45916509 -10.24987219
Pu -5.80605700 -1.40570500 -5.73121500
O 3.47601400 -0.16866400 -5.65721700
O -3.43985854 -0.07273045 7.34413648
Pu -3.58792033 -10.07701329 0.12361264
O -3.73696443 7.38910264 -8.57740190
O -8.16232430 -3.25986914 -2.22189508
Pu -4.83369175 -8.78589976 -3.18897057
O 1.57340669 -4.61563346 -0.47856929
O -2.18734520 6.89121179 -0.09180994
Pu -6.27375108 3.96149211 2.48101755
O -0.27799383 -8.37874562 -3.07288510
O -5.88758879 6.88120575 4.82502810
Pu 8.39870131 -5.95450197 0.52302019
O 4.29238100 2.64855400 -7.02112600
O -3.43696166 9.82766995 7.15863321
Pu -0.85697314 1.50961405 -2.36830381
O -2.77036706 -2.96848831 3.27295904
O 3.38858500 -1.25256400 6.07140600
Pu 5.43763998 8.67747586 4.62845161
O -7.90758851 4.98528714 3.40175831
O -4.22947345 8.83943199 -1.18703762
Pu -2.60747770 4.08070947 3.00591046
O 1.73934719 -7.57055974 2.93620616
O -7.96581154 -1.21175798 1.09819471
Pu -7.64738131 1.15182259 -5.89929136
O 7.03322284 3.61008263 -4.76466002
O -6.52335361 -9.13979476 1.88910003
Pu -7.87130741 -5.03359154 1.44652619
O -2.71510335 0.01368432 -10.01497555
O 7.38186895 -5.75734734 -4.02095047
Pu -1.33548831 -10.29217195 -3.18449132
O 2.72237660 5.90607865 7.99962960
O 0.23435853 -0.12408845 -7.44938110
Pu 0.38019600 -8.39817800 -0.90287500
O 3.78334808 -3.41091167 -1.81629508
O 6.74345444 -4.78559366 5.44218578
Pu 0.89251920 5.93733439 -2.90126062
O 9.61399329 -5.94869310 2.10023330
O 0.04149400 1.32116700 -0.19586600
Pu -3.29102777 10.95171401 5.51629449
O -1.71922333 -8.47235682 -7.55126424
O -2.95754037 -2.99475061 -3.04761611
Pu 6.44748530 7.61153190 -0.49583492
O 3.72232900 0.47978500 -8.10324800
O -2.87729780 8.86208599 -6.84437733
Pu -0.44114900 -0.59034000 0.06839300
O -3.00447972 -9.16273004 2.06622581
O -0.83194124 -7.55838709 4.49938089
Pu 5.70802374 4.57400727 -6.04176588
O -1.08014083 3.16006476 -1.31242658
O -5.27915954 4.78299711 4.17280950
Pu -0.87077900 -4.69125300 -0.08285600
O 7.30140336 2.45368732 -7.08503198
O -2.21882049 6.41175497 3.37140169
Pu 4.96185552 -1.12881640 4.64462625
O -4.16171398 -3.15852081 -5.36274542
O -7.87613279 3.62143564 0.34113513
Pu -4.39023096 7.37895079 -6.37917855
O 3.56352236 3.06975541 7.19378195
O 1.24661175 6.96162668 6.26750819
Pu -7.39343900 -4.96761000 5.40379000
O 3.93503971 -8.11783330 -3.51240100
O -8.15320232 -1.00671013 -4.01093200
Pu 1.55529200 -1.38895400 7.41242200
O -5.30995761 5.57836668 -7.18513728
O 1.41512601 -6.25681210 -3.82816145
Pu -1.81060700 4.46235000 -4.96477100
O -8.88903010 -8.39257777 -0.49596260
O 2.97829877 5.13323469 -2.69292645
Pu -6.65307644 2.28808516 -1.41041449
O 8.00819407 8.24989251 -1.62935238
O -3.27875160 -4.17242600 7.77609445
Pu -5.13077411 -7.96733059 2.76552829
O -1.95862952 -10.13181570 -0.98829899
O -0.11322323 -3.23469057 8.39646428
Pu 10.70280153 -1.30137872 1.16528340
O 5.50598700 0.23549900 6.09529200
O -5.14217878 -10.14569659 -1.00912742
Pu 3.63087643 -4.75440998 -7.94743979
O -4.86344825 3.15224709 -3.16609422
O 5.03242916 -8.98308342 -1.49882020
Pu -5.11247300 -3.80671200 -3.69379300
O 1.52568192 -4.32396686 -8.92468629
O 9.07898068 -3.73735454 4.94617294
Pu 4.87316000 4.05304200 5.79443000
O 0.26463300 4.54107300 -4.36833200
O 3.51642279 -6.37158019 5.11907165
Pu -3.97736600 -5.20561700 3.92622900
O 6.99149290 2.48071150 -0.15799557
O 3.08669068 -9.74820841 0.27642242
Pu -0.00308776 -3.11878618 -7.92975424
O -1.37529958 10.89408953 5.84875854
O -7.14340895 5.63439645 1.52476063
Pu 8.41656600 1.28612200 -1.04380400
O -0.90297293 -5.02457742 10.79600296
O 9.55119718 -0.49071902 -0.43675608
Pu 0.53206449 -5.02268684 9.41869448
O -2.94911874 -5.88356091 -8.09894247
O -3.93606900 -1.51681700 5.52390600
Pu -3.22592100 -0.89129900 3.63100600
O -1.53813337 2.34798736 -4.20869510
O 2.21063047 -4.04560702 8.66464726
Pu 10.28358299 -4.37608778 3.52043054
O -0.29152483 5.03513394 4.15035253
O 5.05251048 6.59902019 6.23416508
Pu -3.37734509 -4.39612277 -6.80679369
O 3.01614600 5.05667600 -6.44399900
O 0.57493328 -10.46100902 -2.06302684
Pu -1.18241323 -1.17579813 -10.55795189
O -1.92043418 -7.13969526 -5.71470539
O 9.67783118 2.90278814 -0.81671830
