420
ML-kMC step 2000
Pu 1.44229800 5.80026727 4.18675419
O 2.48051544 0.72059996 7.74761652
O 5.19072314 -2.71037132 -3.78155906
Pu 2.79538400 3.00665000 -5.40479000
O -5.78528499 7.89985111 2.02115275
O 10.06154822 -2.43293635 -3.14195356
Pu -7.54398588 5.66323739 -0.57493648
O 2.63514395 -11.31862989 -1.53185874
O -7.00042354 -3.13831794 -4.64682941
Pu -4.21850774 3.52414009 -7.27433632
O 1.49622931 -6.85299872 6.08418934
O 4.93624941 7.29527483 8.11337765
Pu 5.43150820 -5.73907959 3.63244673
O 2.37492855 2.84597942 0.10731043
O 5.67744516 6.28089994 -4.78636698
Pu -1.18042106 5.54747033 6.40769006
O -6.14990294 0.63276850 -4.85789957
O -4.53206832 0.88763738 -1.49834292
Pu -5.30531264 5.04415544 -3.41401634
O 7.99349314 2.59578113 -2.86623791
O 4.36627517 -0.74189286 2.70780537
Pu 1.74560140 3.97048267 7.94458406
O -4.61183794 1.49503119 -7.90039499
O -6.17938336 7.30283514 -0.97108213
Pu 0.21975306 -5.71879202 -10.49894906
O 2.26870815 7.43966803 -2.62115102
O -5.31849995 2.36462538 7.79425999
Pu 5.61381175 -3.28564355 -1.08587175
O -1.45759451 2.77966421 1.92556975
O -0.69422577 3.37897651 7.55343620
Pu -0.56283901 7.02821460 1.72214446
O 4.64849750 -5.33813386 1.48451979
O 0.82225355 4.21209761 6.17137537
Pu -3.53586498 -0.46278795 -8.24248638
O 1.20825434 -6.51332636 -6.17752238
O 0.54748897 8.48324120 -4.72934165
Pu 0.29661829 3.04155186 0.76836154
O -1.83140353 4.20699482 -8.66595852
O 4.86443779 -3.15920027 4.03822452
Pu 0.03759109 4.09724538 -9.59448785
O -6.63603497 4.85248516 7.42990791
O 0.95748479 -1.70203304 -8.95624594
Pu -3.04850854 -7.61667344 -6.56827592
O -4.76369459 -6.35163507 -6.94780037
O -5.80837473 -5.75143055 4.11971799
Pu -0.60010729 -6.26119837 6.13953940
O 6.17668475 2.56601266 5.86311887
O 1.09476695 -11.52256092 0.79688769
Pu -2.67349475 7.91911682 7.30848188
O -2.06422859 2.44840826 4.98671698
O -9.25766331 5.88574007 0.40995126
Pu 5.53224189 1.14424253 -7.88202864
O 3.59595589 -6.46982679 8.20778971
O 0.32160233 7.55395908 3.37723537
Pu 4.44153247 0.86666714 7.78744987
O -4.63007344 -5.68273214 -4.20628709
O -9.55707507 -5.41156051 0.52991250
Pu 7.34861573 -2.77130180 2.13712886
O 1.67949320 3.83148243 3.03765800
O -0.75483344 7.33383687 -2.30834619
Pu 0.33006627 9.10110678 -2.44683202
O 4.99804867 8.64619126 1.28916499
O -6.02345070 -6.46257303 0.90001880
Pu -1.80512100 6.80474590 -8.17571183
O 4.19017900 6.96661300 0.14645300
O 3.94339686 2.12139751 -9.49715875
Pu 2.53992730 -8.02810792 4.53794671
O -4.75845150 2.38273598 2.58815148
O 1.58595136 9.55375106 -0.87896623
Pu 2.91062461 -5.24967198 6.81290422
O 2.66661260 -1.02654054 -10.57456060
O 0.50075954 -6.95554941 -8.99998785
Pu -8.78953438 4.85730122 5.03864943
O 9.48219564 0.59054632 1.60200327
O 4.92909942 -3.05055666 -8.71273970
Pu -0.65274091 -6.33493840 -3.51695386
O -8.35969525 6.73322940 4.91668359
O -6.95425194 4.75504496 -4.36375016
Pu 5.08312537 6.00451466 1.91230027
O 4.14289183 4.25864968 1.54137702
O -8.42327214 2.77955371 -5.20956800
Pu 11.62936577 2.71719278 -1.17894151
O 6.55278653 4.65690437 6.67012183
O -2.09954598 6.07448089 8.13826424
Pu 3.78851043 1.04118620 -0.89728304
O 0.22269365 -1.62472995 -5.10806247
O -5.43382286 -3.40659422 5.98488368
Pu -1.05942776 0.91101819 -6.22946164
O 3.69072534 5.03278781 4.22065785
O 3.33121278 7.35317258 -5.05366978
Pu -10.83016558 1.96572530 6.14662072
O -9.70792437 3.55656327 6.16291562
O 12.56251840 3.61243365 -2.58914797
Pu -9.88745293 4.29428649 1.39612635
O 5.59846167 5.72899177 -1.76508861
O -3.16093968 4.50344344 5.64100145
Pu -8.98963247 0.36554140 0.47230430
O -9.49933040 3.87738000 3.23479685
O 0.92518814 -8.64691902 -5.53329416
Pu -9.58071982 -5.98642248 -1.32730822
O -2.29391772 -0.42957445 0.02661705
O 2.05435831 4.71648022 -9.51175240
Pu -1.55442432 -3.20285568 6.83067060
O 4.37354968 1.60930122 1.56314676
O -3.62265545 6.53495312 6.17891457
Pu -4.73455272 7.80625261 0.29838402
O -3.33851704 0.30296645 -5.69906692
O 6.50800374 4.86939318 3.02846070
Pu -0.86663748 8.78715298 4.47481139
O 0.50935517 4.25814994 9.50833082
O 7.88302034 2.50722437 2.73630674
Pu -5.73101601 -1.41687145 5.62987833
O 0.16708019 0.14410356 -9.93626547
O 4.75598060 2.96496332 -1.29627663
Pu 7.14156844 -1.08130070 -3.93748898
O 6.72629100 -5.13614898 -1.49430847
O -2.09925553 6.05390142 -6.08829955
Pu 1.89871813 -9.58991658 1.46467161
O 6.21737309 5.04931504 0.57413655
O 10.63886878 0.93872583 -1.70326252
Pu 9.30378543 3.47807770 1.24686905
O 7.36522354 -4.62038579 2.75809711
O -1.19002520 1.35195811 7.67632634
Pu -3.10103008 -1.55539183 -1.86311483
O -0.40521067 7.62155480 -7.10384586
O -0.55050137 -1.89702198 -12.04136892
Pu 1.85013997 6.64066285 -6.31796533
O -9.78481183 -4.83815863 -3.07245444
O -0.46671079 -11.93035290 -2.30058801
Pu 1.93197459 -2.64817404 -0.61713268
O -7.38558000 0.34775600 -0.89551100
O -4.98014627 -4.39061284 9.85023392
Pu 3.11288437 -9.57842073 -2.23853329
O 6.41928041 -4.42027776 -6.72901909
O -0.38641515 -4.70969418 -2.37819429
Pu 3.03201148 8.53676620 0.10970482
O 8.71321906 0.13298681 -3.67009749
O 3.82448663 -6.28192462 -6.96230126
Pu 2.62539945 -7.37440285 -4.99919493
O -3.98146628 4.72683464 -5.27324261
O -9.43807313 -0.38533262 -1.34413292
Pu -2.93599677 7.57440251 -2.57002693
O -0.84970502 -5.04513132 2.15522656
O 5.18246060 5.17667048 -7.93238990
Pu 5.00847172 -7.93987471 0.45724762
O 1.13568691 1.83916905 -5.03353431
O -3.38517754 3.66857384 0.32012131
Pu -4.36842097 1.02671241 -3.75907103
O 1.26251030 -4.74990920 -11.80873239
O -5.97305714 -7.41778622 -1.70687646
Pu 7.37511127 -2.95822095 5.79095762
O -4.53919500 -1.83531600 -7.15147300
O 6.71930938 -1.38462404 6.75116926
Pu 6.56323390 6.61707013 7.31630848
O -0.88859875 4.93063433 1.12479453
O -8.66541261 1.53083250 7.48489945
Pu 8.13766239 3.98592619 7.84293890
O -2.60570539 -9.00782432 -3.17414809
O -2.54621319 -2.14785023 9.30428145
Pu 5.95774600 4.01506223 -2.78703389
O -9.63707971 2.34007364 0.92018258
O -1.13328891 -4.21715515 -6.27553676
Pu -0.29748082 -3.37418517 3.33817246
O 7.10066856 -1.05456792 4.16570419
O -4.23796609 5.63173153 -1.83769844
Pu 2.83901149 -2.12226195 2.54244722
O 3.59124176 8.38712398 5.30525317
O 5.30817050 0.04551872 -2.51761793
Pu 3.20519689 2.23677687 3.13956278
O 2.65861786 -3.10740782 -6.95982808
O 8.82975513 3.53426301 9.56626637
Pu 0.93072947 -12.16901258 -1.02646666
O -7.14964498 1.75178280 2.47154614
O -0.02414878 -8.68383700 1.13487286
Pu -7.01867466 -8.25549533 -0.21108611
O -7.35554346 -0.68970691 -6.47725137
O 2.99025294 -3.55095163 1.21841254
Pu 6.56996377 -2.69268645 -7.63382026
O -4.03365460 -9.27761083 -4.71404836
O -0.86532600 -2.31311700 -1.15003600
Pu 5.83132434 -6.91978376 -2.81649165
O 7.14374874 -7.23236383 0.18580253
O -7.86934172 -4.97450499 3.28943605
Pu 3.39384900 4.64812700 -0.59715100
O -10.09440037 -1.84472646 -3.34329754
O -5.81141190 -3.97759531 1.57474988
Pu 0.05382839 -7.89534751 -7.25065031
O 6.38396010 -1.77483837 0.56150447
O -5.33596993 1.07246005 5.53083782
Pu -5.33222533 -4.07245879 7.98662220
O -2.45343802 -6.04024050 0.09840322
O 1.45792313 2.57435487 -9.03551339
Pu 5.99884895 3.04562587 1.64067267
O -6.76463929 -2.10606192 7.39025339
O 4.83720393 7.41876698 3.23646836
Pu -3.53448543 1.65702347 0.74834499
O 1.42486320 5.52594341 -0.91836903
O 0.32069870 -2.80524495 0.90459615
Pu 8.65399355 0.43806634 3.55234330
O 5.27584244 2.59353878 3.89537770
O -0.16668207 6.55355243 -4.85627863
Pu -4.56194534 -5.66825001 -0.46747688
O 1.62496792 -3.86368439 3.59983416
O -6.59357861 4.35636724 -1.67540930
Pu -1.93727475 -0.14014938 8.84640168
O -6.29348354 -1.74349657 3.43531615
O 8.61451313 -0.12883967 5.50263103
Pu 2.19839311 -0.98500276 -7.28099161
O 5.67626259 0.13641410 -5.65264047
O 2.72794203 -9.66901611 3.54212989
Pu 7.93559787 1.91473238 -4.92150190
O -3.52601343 -6.31870575 2.07503380
O -0.34972418 6.15520832 -9.45398528
Pu 3.16358561 7.40607404 7.07478388
O 6.25672682 0.98569985 8.67298350
O -1.56008218 -0.89270175 2.21223239
Pu 8.93412386 -4.36867455 -2.92409659
O -2.52000290 5.46066072 -3.44680740
O -2.50243995 0.42866122 -2.07653470
Pu -5.07940768 5.10141177 6.33708738
O -6.33334258 -5.38304225 6.89817025
O 1.45361417 7.39909504 1.11825989
Pu 5.93656078 -4.34036785 -4.69186445
O -0.40044886 -1.79819515 5.79726991
O -0.05720735 -0.71882007 8.59803035
Pu 4.32042041 7.09979450 -3.17693039
O -3.05598839 3.22714326 7.85628444
O -7.64051376 -6.12509948 -0.86188857
Pu 2.34762009 0.75288966 -9.86326020
O 1.88077819 -1.16519013 0.84145234
O -7.40009347 1.22447945 -3.36192679
Pu -0.53873405 -2.68633137 -3.70358918
O 6.83646316 7.98373905 5.78635673
O 9.52259085 4.20634590 3.27021088
Pu 8.03018095 4.49537699 4.52640869
O 11.93761824 -1.46542629 -0.39912986
O -2.34436592 1.42718957 10.16273576
Pu 2.64722024 -5.67712030 1.57988689
O -0.02074341 -6.55313029 -0.84190235
O -9.60975903 -0.20241640 5.43235251
Pu -7.09849191 2.97727665 7.42817404
O 8.49792103 6.11378703 7.30787491
O 1.91528459 0.83571633 -2.06609558
Pu 10.85126523 -1.09003279 -2.04672410
O 1.39550824 -2.60926012 -2.81094134
O -4.50222086 -0.01522062 2.11067564
Pu -7.44225843 -1.36970840 -2.17896348
O -5.10103801 -1.38474568 -3.47775830
O -2.49799187 3.17208712 -6.50870719
Pu -5.89640751 -1.33190497 1.28908258
O 4.38182939 -6.09432266 -1.61060905
O 8.96459682 3.39618006 6.07732248
Pu -9.71573201 0.15969318 -3.27189147
O 9.28675952 -5.40677272 -1.22324818
O 2.93505586 -1.15027744 -1.46446199
Pu -7.14627239 6.90861617 2.93125744
O -1.98513009 9.21835977 -3.23369613
O 1.96381712 -8.00013264 -1.96051473
Pu -2.92389514 -3.98151552 9.92851733
O -3.44019378 9.01529660 4.66255280
O 4.81223586 8.26019120 -1.52678945
Pu -9.09539410 -3.38335278 -4.12595142
O 11.13258518 2.75028674 0.87375575
O -9.41474844 1.85754655 4.78018929
Pu 3.64145136 3.83523779 -8.41564598
O -0.93306168 -5.66690542 7.92519089
O -4.18844896 -7.24015501 4.27310180
Pu -9.03904070 4.05102269 -3.92109055
O 3.06734644 -7.18833060 0.22773480
O 9.08857801 -1.92892321 2.59556186
Pu 1.13155753 -2.43700429 -11.17988580
O -3.98020392 7.63507718 -4.32391528
O -8.43720206 -3.46984350 6.12760410
Pu -1.69609765 3.26336351 9.33240882
O -4.16945599 -8.06342228 0.20103380
O -1.92101860 -2.21520313 -8.68471337
Pu -2.46849635 4.87270744 -1.03879804
O -1.95627262 10.01254670 3.32569465
O 4.34881270 3.99789634 -4.52905127
Pu -3.89009235 1.82706262 6.65654692
O -4.46734177 -4.07527422 -1.68842200
O -0.89800480 -0.44922255 -3.18693569
Pu -1.69111215 -7.38205518 2.49226496
O -1.76774469 -4.70275648 5.16364857
O -7.40936212 -0.41597666 5.53699128
Pu -0.33737447 2.30893268 5.82374240
O 1.00652303 -4.28089730 5.81360677
O 4.75753297 -7.27382265 2.62218352
Pu 2.84044518 -1.11144341 -3.61920515
O -7.09910419 3.45557295 5.49834981
O -5.66956120 -1.72124651 -0.86644978
Pu 7.30135296 0.72405419 6.68760555
O -4.24933169 5.64186921 1.56846806
O 4.78899709 -6.01196035 -4.42304571
Pu -7.51221500 1.60634500 4.71252900
O 1.51950695 1.38548688 4.56258353
O 6.48842080 -0.93062461 -8.35096101
Pu -8.86136427 -1.67689635 6.59720583
O -9.48904198 4.63201423 -2.16502213
O 8.41004756 -3.64321822 0.54351371
Pu 2.29963739 -5.93743487 -1.63961491
O 11.06657401 -2.87529984 2.04104352
O 7.36434925 -2.41639602 -5.61547937
Pu -1.34451772 8.19095852 -5.44478111
O 7.40761223 -2.85268295 -2.79285362
O -10.23639129 1.99668078 -2.79268824
Pu -3.85238127 7.11980373 4.13009882
O -1.26572570 7.41381030 5.83458236
O -0.08316518 -3.21554774 -9.91553543
Pu -5.85249097 -1.40897931 -5.41456070
O 3.54626874 -0.13705403 -5.72731102
O -3.12336147 -0.35776544 7.27738831
Pu -3.25951815 -10.09399478 0.20658023
O -3.76443363 6.62586161 -8.23960618
O -8.09864841 -3.35252174 -2.29830783
Pu -4.39220134 -8.17726122 -3.03667847
O 1.44688821 -4.80288015 -0.01136699
O -2.42984809 7.36416495 0.08580493
Pu -6.45022100 4.05277200 2.60396900
O -0.53766247 -8.24480662 -2.83619587
O -5.82069759 6.79220021 4.61744909
Pu 8.26067442 -5.65259238 0.60396854
O 4.45358652 2.66633664 -6.88144785
O -3.11388902 9.72233968 6.54051480
Pu -0.60521329 1.55157916 -2.29333885
O -2.47284605 -3.19571618 3.35093965
O 3.41415034 -1.36827798 6.10289781
Pu 5.43103915 8.63094261 4.64811832
O -7.98406600 5.23683200 3.29137000
O -4.01509355 8.87097606 -1.14607243
Pu -2.65668711 3.97617008 3.24787650
O 1.94184324 -7.67103632 2.51628991
O -7.95841419 -1.30240386 1.08318895
Pu -7.64480547 1.18538220 -5.91713124
O 6.88214843 3.58604833 -4.54080101
O -6.41651045 -8.97605633 1.75462022
Pu -7.79229997 -5.01193927 1.38709790
O -2.71349251 0.04924948 -9.92445847
O 7.43527775 -5.31003160 -3.85793674
Pu -1.07706949 -10.36037115 -3.22347759
O 2.67700278 5.64431534 7.98934961
O 0.30761526 -0.18391480 -7.33359362
Pu 0.28822722 -8.48878139 -0.87815830
O 3.47703686 -3.73537828 -1.48018060
O 6.33768440 -4.61525433 5.42317068
Pu 0.92014900 5.89921300 -2.97680800
O 9.21425729 -5.73532535 2.56232349
O 0.04149400 1.32116700 -0.19586600
Pu -3.01572459 10.87477712 4.90573351
O -1.65438639 -8.81258038 -7.70473010
O -2.65903622 -3.05396528 -3.13820193
Pu 6.26325534 7.51156940 -0.51849261
O 3.72232900 0.47978500 -8.10324800
O -2.79190863 8.11676260 -6.82692402
Pu -0.34880579 -0.76868595 0.32559827
O -2.77545273 -9.11109332 2.08865530
O -0.72038200 -7.65770490 4.33073007
Pu 5.68356418 4.64255658 -5.94413340
O -1.08698976 3.42819810 -0.92307163
O -5.06152339 4.58830419 4.05374994
Pu -0.62198786 -4.70950918 -0.19582649
O 7.04208229 2.21302424 -6.84196951
O -2.06280679 6.71389710 3.41420328
Pu 5.04176444 -1.08308659 4.65354604
O -4.24896941 -3.05143899 -5.33646064
O -7.76779711 3.39535644 0.14067649
Pu -4.32366590 6.80790795 -6.10596218
O 3.85822587 2.96444459 7.20141225
O 1.23366210 7.08302477 6.06019699
Pu -7.20525083 -4.86056056 5.27659362
O 3.80651997 -8.28657705 -3.68081481
O -8.01149111 -0.96112274 -4.04489970
Pu 1.07857149 -1.55676374 7.22665312
O -5.51799093 5.23021243 -6.86670380
O 1.46174709 -6.02261502 -3.84965911
Pu -1.70317625 4.35114643 -4.89282643
O -9.01746438 -7.93320570 -0.89649641
O 3.33780140 5.20416708 -2.84010466
Pu -6.78670668 2.25304930 -1.56567992
O 7.83004940 8.11084555 -1.44890419
O -3.18289450 -4.05806475 7.78393380
Pu -5.01383000 -7.64580488 2.27021553
O -1.74416734 -10.09266209 -1.06066894
O -0.29412855 -3.23185062 8.25351274
Pu 10.53164022 -1.06508969 1.02046862
O 5.26964118 0.29352119 6.01877831
O -5.21061229 -9.72013554 -1.23684221
Pu 3.75880157 -4.50547895 -8.01944796
O -5.14286033 2.86640759 -3.04294309
O 4.92850921 -8.76230050 -1.59131083
Pu -5.19983306 -3.66940603 -3.81060996
O 1.27278149 -4.61581948 -8.95927443
O 8.80502769 -3.65268177 4.68549004
Pu 4.78374408 4.24895293 5.57300058
O 0.26482921 4.54480374 -4.36280041
O 3.58228079 -6.22176185 4.84326367
Pu -3.97736600 -5.20561700 3.92622900
O 7.08058652 2.59940722 0.03899340
O 3.22958432 -9.46442832 0.07546855
Pu -0.09112469 -3.62587144 -7.83606725
O -1.02244695 10.49920448 5.68127643
O -7.06484019 5.55186476 1.37611080
Pu 8.40708575 1.35544184 -1.08219840
O -1.19978287 -4.91915104 10.59944158
O 9.43745305 -0.55782867 -0.56583021
Pu 0.43218067 -4.83592658 9.53152544
O -2.65944753 -5.99254100 -7.92560871
O -3.72881142 -1.51210175 5.24032513
Pu -3.25619869 -0.87558341 3.50260626
O -1.59056242 2.41116109 -4.23353015
O 2.02577843 -4.18293021 8.58889557
Pu 10.26981746 -4.25309187 3.51019553
O -0.71911564 5.09940841 4.54198595
O 4.94369354 6.37365031 6.23994446
Pu -3.89378807 -4.57177564 -6.63871848
O 2.69781656 4.66436286 -6.63149453
O 0.69859118 -10.00133753 -2.14406423
Pu -1.26348615 -1.11881481 -10.44404671
O -1.81411684 -6.80424101 -5.23724613
O 9.62855292 3.09949065 -0.72973294
