420
ML-kMC step 3000
Pu 1.41329399 5.71848033 4.23578809
O 2.48051544 0.72059996 7.74761652
O 5.00618565 -2.64542664 -3.68067418
Pu 2.86677070 2.95754088 -5.43079207
O -5.72268921 7.91871441 1.83895724
O 9.55522584 -2.57915086 -3.15111776
Pu -7.54398588 5.66323739 -0.57493648
O 2.65229871 -11.33371983 -1.56102377
O -6.93251358 -2.65933974 -4.32812055
Pu -4.17656126 3.69897701 -7.29974268
O 1.45235616 -6.66734798 5.93404789
O 4.95231142 7.17687664 8.37708973
Pu 5.50185908 -5.57274088 3.64835232
O 2.37492855 2.84597942 0.10731043
O 5.59421028 6.16769547 -4.72445124
Pu -1.14286957 5.22331470 6.44384930
O -6.03945519 0.59877079 -4.88278666
O -4.67777842 0.91916851 -1.46788088
Pu -5.04525255 4.96078350 -3.60348737
O 7.99349314 2.59578113 -2.86623791
O 4.46905704 -0.79092838 2.64467131
Pu 1.74560140 3.97048267 7.94458406
O -4.50168313 1.48478110 -7.95710369
O -6.13578525 7.24246285 -0.93844889
Pu 0.13510571 -5.41603258 -10.45213730
O 2.23339843 7.51812654 -2.55884840
O -5.31849995 2.36462538 7.79425999
Pu 5.52448445 -3.12752262 -1.03893882
O -1.18743854 2.67595684 1.99538122
O -0.66456743 3.46573761 7.53125778
Pu -0.56283901 7.02821460 1.72214446
O 4.62089759 -5.34695690 1.44057279
O 0.90978523 4.27391622 6.01455728
Pu -3.51416554 -0.46917328 -8.12938001
O 1.20739827 -6.51234042 -6.17727233
O 0.54748897 8.48324120 -4.72934165
Pu 0.29661829 3.04155186 0.76836154
O -1.84319838 4.15269756 -8.17922851
O 4.90214694 -3.26126762 3.87652865
Pu 0.03808350 3.87406035 -9.04308352
O -6.51716443 4.84594773 7.42111887
O 1.06188683 -1.91446281 -8.70553871
Pu -3.15723420 -7.56900400 -6.50017711
O -4.77258845 -6.20773172 -6.81318204
O -5.75125187 -5.73076329 4.06136882
Pu -0.56659637 -6.30345654 5.75244479
O 6.46199411 2.48203037 6.04521146
O 0.85123844 -10.80183510 0.79957992
Pu -2.75197758 8.00855260 7.30529986
O -2.25543999 2.22074831 5.04083851
O -9.43445290 6.09663399 0.24315188
Pu 5.38900157 0.98501024 -7.51850826
O 3.58700081 -6.35019117 8.20657371
O 0.44375526 7.52663679 3.40271508
Pu 4.44153247 0.86666714 7.78744987
O -4.52825011 -5.59784046 -4.25518287
O -9.50916683 -5.09648763 0.73336568
Pu 7.34861573 -2.77130180 2.13712886
O 1.62747598 4.07146369 3.26686801
O -0.72619256 6.91151967 -2.26576315
Pu 0.46789619 8.85709673 -2.56225035
O 5.02690402 8.56713904 1.23665516
O -6.00193205 -6.71591104 1.14469950
Pu -1.80572174 6.63656486 -8.31231025
O 4.19583066 6.88338781 0.15485439
O 3.94625277 1.92661200 -9.39447579
Pu 2.53113061 -8.00295387 4.49709836
O -4.66043257 2.48132150 2.52108973
O 1.67265027 9.44745874 -1.02411030
Pu 2.90219783 -5.24652128 6.80215039
O 2.46594344 -1.06844494 -10.30588125
O 0.08576578 -6.67629081 -8.80645435
Pu -8.70873280 4.80604704 4.98854909
O 9.16070024 0.68153475 1.58555473
O 4.82405459 -2.98107235 -8.48929248
Pu -0.65274091 -6.33493840 -3.51695386
O -8.21993215 6.72584601 4.73067096
O -6.95425194 4.75504496 -4.36375016
Pu 5.10641052 6.01277567 1.89076792
O 4.14289183 4.25864968 1.54137702
O -8.76708240 2.72333337 -5.64023834
Pu 10.99639873 2.72900731 -1.13620532
O 6.39309246 4.48447673 6.59428309
O -2.10518353 6.34373545 8.21226823
Pu 3.63321300 0.84553195 -0.90064831
O 0.38607073 -1.77055029 -5.07937297
O -5.27123754 -3.51843328 5.83716101
Pu -1.20269660 0.84819120 -6.16967090
O 3.76374110 5.02475505 4.02413106
O 3.07880722 7.13819212 -4.86222373
Pu -10.47736007 1.63947097 6.19075706
O -9.53200362 3.58116796 6.19257251
O 12.14704206 3.61790831 -2.44519587
Pu -9.44879283 4.32499092 1.11727014
O 5.58474841 5.63824408 -1.71956665
O -2.94717386 4.73351197 5.58251659
Pu -8.98963247 0.36554140 0.47230430
O -9.61128941 3.84525858 3.23451535
O 0.90071155 -8.62429190 -5.22664724
Pu -9.31919425 -5.80265493 -1.31261286
O -2.75482500 -0.25933746 0.07696584
O 1.80289532 4.73808065 -8.70088276
Pu -1.74476631 -3.17550829 6.74314408
O 4.37869309 1.61735819 1.56983301
O -3.87604540 6.57454625 6.27910544
Pu -4.48155854 7.53892951 0.26583329
O -3.33851704 0.30296645 -5.69906692
O 6.29550113 4.94630564 3.10834265
Pu -0.68826461 8.74094717 4.48972994
O 0.54859670 4.08156018 9.45255007
O 7.68625750 2.36206077 2.91189510
Pu -5.73101601 -1.41687145 5.62987833
O 0.16395087 0.29228393 -9.68075744
O 4.75598060 2.96496332 -1.29627663
Pu 6.71332577 -1.07699967 -3.79080280
O 6.30236418 -4.90852229 -1.24759786
O -2.09925553 6.05390142 -6.08829955
Pu 2.00554133 -9.33156700 1.59587468
O 6.11399301 5.00036067 0.34648458
O 10.64860511 0.96468612 -1.86658447
Pu 8.85075562 3.46077253 1.26713476
O 7.12462590 -4.67073281 2.73624346
O -1.19002520 1.35195811 7.67632634
Pu -3.10103008 -1.55539183 -1.86311483
O -0.36136521 7.31247257 -7.12741799
O -0.39100152 -1.63824119 -12.26471851
Pu 1.76440139 6.45296337 -6.23579779
O -9.56648767 -4.93177160 -3.00193423
O -0.72606868 -11.86159517 -2.37530801
Pu 1.93197459 -2.64817404 -0.61713268
O -7.38558000 0.34775600 -0.89551100
O -4.84540231 -4.32366249 9.85702809
Pu 3.11288437 -9.57842073 -2.23853329
O 6.43721422 -4.37150258 -6.64913146
O -0.31996294 -4.64679097 -2.30160548
Pu 3.03201148 8.53676620 0.10970482
O 8.62142418 0.19362338 -3.63160875
O 3.84932650 -6.23893145 -6.89635169
Pu 2.68645251 -7.25772425 -4.95841166
O -3.82756095 4.75075305 -5.21600482
O -9.24236099 -0.40536333 -1.37458801
Pu -2.93599677 7.57440251 -2.57002693
O -0.86468896 -5.02651450 2.08801309
O 5.14542008 4.97680200 -7.84447448
Pu 5.06604913 -7.49309441 0.44182199
O 1.16619091 1.84527225 -5.07085839
O -3.28142565 3.52278263 0.18047176
Pu -4.30197862 1.14002233 -3.64333620
O 1.02543698 -4.29875495 -11.80027974
O -6.03622494 -7.18837177 -1.77222532
Pu 7.33866323 -2.92261369 5.71182737
O -4.79012338 -1.65660873 -7.16864290
O 6.71458323 -1.28861790 6.47793735
Pu 6.41673490 6.46899161 7.15290968
O -0.81268838 5.12557251 1.11577333
O -8.53895417 1.73942820 7.49554259
Pu 7.86313641 3.81171422 7.60311575
O -2.34187728 -8.49019957 -2.82022606
O -2.58538430 -2.05588577 9.03789804
Pu 6.01422731 3.96160295 -2.64169187
O -9.25081862 2.31959496 0.91543731
O -1.48804191 -4.25523284 -6.21785438
Pu -0.29003225 -3.44829714 3.29893488
O 6.82446089 -1.32634722 3.88327149
O -4.23796609 5.63173153 -1.83769844
Pu 2.83901149 -2.12226195 2.54244722
O 3.48577143 8.26627928 5.33047625
O 5.33496357 0.30344396 -2.32390926
Pu 3.15164039 2.41173647 3.11944320
O 2.66272023 -3.27370365 -6.81702759
O 8.56732611 3.05412924 9.31050470
Pu 0.75462424 -11.87247084 -0.96327737
O -7.24428228 2.10998663 2.55718247
O 0.00676102 -8.70118571 1.08623896
Pu -6.89535265 -8.11236388 -0.21260010
O -7.35554346 -0.68970691 -6.47725137
O 2.99025294 -3.55095163 1.21841254
Pu 6.56996377 -2.69268645 -7.63382026
O -3.77859411 -8.69109815 -4.84433685
O -0.70535441 -2.48585259 -1.11623893
Pu 5.60653629 -6.81676767 -2.71388478
O 6.89261108 -6.97844615 0.17943837
O -7.87736865 -5.12239702 3.27746834
Pu 3.36264644 4.67601400 -0.47270519
O -10.09911818 -1.65739114 -3.81388416
O -5.66425160 -3.73761529 1.53089325
Pu -0.03089599 -7.74138766 -7.03166289
O 6.32952546 -1.70906084 0.64666002
O -5.45344077 1.25265152 5.13563383
Pu -5.33222533 -4.07245879 7.98662220
O -2.21259998 -6.00314883 -0.03949375
O 1.45792313 2.57435487 -9.03551339
Pu 5.84255476 2.92771247 1.65732544
O -6.47469381 -2.15852646 7.48414231
O 4.83720393 7.41876698 3.23646836
Pu -3.53448543 1.65702347 0.74834499
O 1.36313285 5.24770993 -0.95698869
O 0.32069870 -2.80524495 0.90459615
Pu 8.63311792 0.31422905 3.41148999
O 5.48704942 2.58263849 3.99283008
O -0.16668207 6.55355243 -4.85627863
Pu -4.41345370 -5.82922686 -0.37318005
O 1.66376939 -3.84826678 3.50276265
O -6.19778857 4.36009166 -1.86861270
Pu -1.93727475 -0.14014938 8.84640168
O -6.37432840 -1.75087157 3.66237418
O 8.72764545 -0.01502957 5.35938320
Pu 2.20472679 -1.23067799 -6.99178342
O 5.93499800 0.13168922 -5.53916299
O 2.56285117 -9.62255259 3.49786076
Pu 7.93559787 1.91473238 -4.92150190
O -3.54185906 -6.24117287 2.20082312
O -0.14216354 5.84267387 -9.34056539
Pu 3.11177977 7.36354162 7.04111095
O 6.32342571 1.04392255 8.53463392
O -1.51576048 -0.89727116 2.13588076
Pu 8.61431838 -4.42519291 -2.87045278
O -2.52233290 5.46105719 -3.44958792
O -2.50243995 0.42866122 -2.07653470
Pu -4.98944463 5.02455672 6.23916216
O -5.88417244 -5.42062064 6.64071985
O 1.45327698 7.21103497 1.04757466
Pu 5.93656078 -4.34036785 -4.69186445
O -0.40044886 -1.79819515 5.79726991
O -0.05720735 -0.71882007 8.59803035
Pu 4.29209881 7.05746558 -3.15129884
O -2.90282326 3.27089603 7.85814229
O -7.29934529 -5.59709361 -0.45298814
Pu 2.29676655 0.75722280 -9.59431532
O 1.88077819 -1.16519013 0.84145234
O -7.52525966 1.27824140 -3.30485275
Pu -0.54169312 -2.67864810 -3.63227684
O 6.76053153 7.81904674 5.74472765
O 9.65786953 4.20918285 3.03549777
Pu 7.92168739 3.95695837 4.47699275
O 11.79448708 -1.58496434 -0.46835373
O -2.23022260 1.48411933 9.85885355
Pu 2.69079787 -5.63721619 1.53817408
O -0.02375540 -6.53923779 -0.83392170
O -9.45241409 -0.13246804 5.33891666
Pu -7.06657403 3.02466291 7.22604800
O 8.21955412 5.65482584 7.05300225
O 1.69897825 0.73258729 -2.26697434
Pu 10.65212561 -1.04450101 -2.01066051
O 1.41192680 -2.62510606 -2.71939277
O -4.40607833 -0.12519999 2.08480125
Pu -7.25741760 -1.44368789 -2.24178793
O -5.18571724 -1.33684658 -3.55131853
O -2.53543542 3.20164633 -6.41300146
Pu -5.81395615 -1.10879699 1.17658472
O 4.19489103 -6.16226980 -1.51386280
O 8.72757071 3.04167142 5.94892994
Pu -9.47741777 0.15558541 -3.19154056
O 8.98271271 -5.23791368 -1.16120188
O 3.05277143 -1.07689524 -1.51943325
Pu -7.17639817 7.25328294 2.94801689
O -1.82222337 9.01846473 -3.20528347
O 1.96381712 -8.00013264 -1.96051473
Pu -2.93630279 -3.89756154 9.73131189
O -3.34396513 8.85215113 4.66586305
O 4.60416100 7.96931320 -1.50813996
Pu -9.00280710 -3.28880444 -4.17823769
O 10.61115034 2.32432575 0.76292374
O -9.26852576 1.81717915 4.73094564
Pu 3.64145136 3.83523779 -8.41564598
O -0.99291565 -5.51272132 7.82800723
O -4.11553817 -7.26519446 4.26066802
Pu -8.66269783 3.81657838 -3.78488671
O 2.89124737 -7.14253387 0.33508486
O 9.10337273 -1.84086690 2.65016641
Pu 1.35999319 -2.54283177 -11.06728939
O -4.03190224 7.33988681 -4.24424313
O -8.30383804 -3.65106385 6.16268712
Pu -1.37503934 3.24091186 9.37819009
O -3.76817929 -7.71456305 0.12105603
O -1.69533630 -2.22317202 -8.63986840
Pu -2.54580315 4.83585935 -1.23653936
O -1.94809276 10.09760040 3.17829000
O 4.43374530 3.67250908 -4.47068126
Pu -3.89009235 1.82706262 6.65654692
O -4.35802027 -3.96013556 -1.69027910
O -0.79927842 -0.59584431 -3.26022140
Pu -1.54568974 -7.27759133 2.23170785
O -1.70111347 -4.67812372 5.12041642
O -7.40936212 -0.41597666 5.53699128
Pu -0.33737447 2.30893268 5.82374240
O 0.93813450 -4.34807269 5.91770476
O 4.67515811 -7.16034655 2.56323757
Pu 2.64578812 -1.23317114 -3.65222368
O -6.94585272 3.42505174 5.23517553
O -5.70564397 -1.69726205 -0.94616350
Pu 7.28132887 0.77678903 6.81165551
O -4.19546054 5.59690277 1.81740880
O 4.77610010 -6.02679314 -4.38086800
Pu -7.35336135 1.49258966 4.43877382
O 1.80848115 1.48834900 4.68755123
O 6.23160840 -0.83083481 -8.27599617
Pu -8.57766675 -1.57846360 6.58234665
O -9.27831466 4.51460290 -2.06245208
O 8.09028527 -3.11176880 0.37775569
Pu 2.28858828 -5.93793597 -1.61511442
O 10.97006279 -2.79891451 1.94297414
O 7.27394671 -2.39202120 -5.56715354
Pu -1.25539749 8.18408116 -5.29162944
O 7.05338637 -2.89855699 -2.71299018
O -10.01147418 2.03942407 -2.89205124
Pu -3.81388619 7.06000460 4.13679582
O -1.32347824 7.29989781 5.62549600
O -0.25762352 -3.35068500 -9.99874027
Pu -5.76864180 -1.33054010 -5.56624705
O 3.49151199 -0.15672497 -5.67940939
O -3.20256659 -0.33354994 7.25822583
Pu -3.13693225 -9.71569826 0.19905692
O -3.71058289 6.39278187 -8.10996953
O -7.97026917 -3.33455637 -2.25882149
Pu -4.51359169 -8.05911771 -2.76959922
O 1.44688821 -4.80288015 -0.01136699
O -2.05940360 7.03195242 0.34661095
Pu -6.45022100 4.05277200 2.60396900
O -0.31784290 -8.12857251 -2.95544830
O -5.84842629 6.80652915 4.58474569
Pu 7.87638658 -5.24699461 0.57529636
O 4.60179877 2.72131282 -6.79030855
O -3.47546345 9.68235344 6.48509168
Pu -0.59925604 1.40156109 -2.41909255
O -2.47284605 -3.19571618 3.35093965
O 3.54540404 -1.33373066 6.01873030
Pu 5.43103915 8.63094261 4.64811832
O -8.01309209 5.13244343 3.20585402
O -3.73902209 8.72557330 -1.22473695
Pu -2.62693384 4.08046453 3.33752879
O 1.80952808 -7.36477703 2.47359077
O -7.82306920 -1.44704351 0.92346214
Pu -7.64480547 1.18538220 -5.91713124
O 6.90067384 3.64284490 -4.52465342
O -6.35100073 -8.90408212 1.44121202
Pu -7.67127422 -4.90922734 1.34446183
O -2.65133245 0.05026117 -9.86692582
O 7.29156591 -5.43975674 -3.90598931
Pu -1.06837522 -10.05697504 -3.17793889
O 2.67700278 5.64431534 7.98934961
O 0.30761526 -0.18391480 -7.33359362
Pu 0.28822722 -8.48878139 -0.87815830
O 3.67766703 -3.72146610 -1.23502437
O 6.30901592 -4.61196634 5.27205644
Pu 1.22560482 5.91352615 -2.85757928
O 9.01458265 -5.35286461 2.46999689
O 0.05727540 1.32753669 -0.19856320
Pu -2.94228877 10.70970230 4.88428638
O -1.66508799 -8.77638322 -7.38204515
O -2.60687736 -2.99048961 -3.23050615
Pu 6.26325534 7.51156940 -0.51849261
O 3.62939730 0.21841099 -7.97435971
O -2.75980442 7.96769495 -6.77758166
Pu -0.34880579 -0.76868595 0.32559827
O -2.70375323 -9.01558098 2.00951360
O -0.62673613 -7.62041371 4.36137392
Pu 5.64327701 4.55769438 -5.99999520
O -0.88766045 3.41295718 -1.20441307
O -4.72314689 4.50348422 4.20990006
Pu -0.54492106 -4.71382940 -0.16937227
O 6.94753810 2.14201514 -6.66199457
O -1.83303246 6.85975943 3.25712191
Pu 5.04176444 -1.08308659 4.65354604
O -4.24160911 -3.00385893 -5.28559737
O -7.64153815 3.55689325 0.07117493
Pu -4.30461930 6.77789621 -6.07910144
O 3.80835697 3.27721489 7.25455978
O 1.37941105 7.17368025 5.94653519
Pu -7.11489370 -4.79767806 5.20755775
O 3.75533967 -8.12568264 -3.60880571
O -8.00131441 -0.92805168 -4.11116128
Pu 1.12301340 -1.61582170 7.22484002
O -5.46901415 5.15775031 -6.50150920
O 1.58424173 -5.96349319 -3.41558142
Pu -1.76170794 4.45544855 -4.89960937
O -8.57986638 -7.72995740 -1.03575003
O 3.41046464 5.34653785 -2.41869777
Pu -6.75604335 2.16593429 -1.47374094
O 7.90359386 8.07836041 -1.30220350
O -3.10559782 -4.09533100 7.81611859
Pu -5.13912373 -7.77519444 2.49397202
O -1.56730852 -9.93275841 -1.13052681
O -0.29412855 -3.23185062 8.25351274
Pu 10.39835997 -1.06669248 0.99809639
O 5.26964118 0.29352119 6.01877831
O -4.92351200 -9.25918843 -1.06240223
Pu 3.65042804 -4.44930761 -7.94603355
O -4.97638135 3.00015516 -3.40861706
O 4.85786028 -8.42167098 -1.52786761
Pu -5.20245040 -3.68877979 -3.75820594
O 1.43163459 -4.66467365 -8.92508698
O 8.85378922 -3.61893851 4.74744239
Pu 4.87278171 4.29852698 5.46483495
O 0.25942637 4.58278207 -4.34591581
O 3.61533083 -6.11804109 4.66676092
Pu -3.97515166 -4.76133760 3.81442493
O 7.20406582 2.51882611 0.17237300
O 3.22958432 -9.46442832 0.07546855
Pu -0.09112469 -3.62587144 -7.83606725
O -1.18571006 10.07181662 5.76641394
O -6.98061136 5.73430008 1.36753312
Pu 8.33360988 1.26336894 -0.98322810
O -1.15997287 -4.43579589 10.82579385
O 9.36193156 -0.37847264 -0.64836702
Pu 0.43050501 -4.81708487 9.49430828
O -2.51795221 -5.73265705 -7.54079100
O -3.72881142 -1.51210175 5.24032513
Pu -3.15944553 -0.75581430 3.54674464
O -1.61576935 2.13733800 -4.06799939
O 1.88135577 -4.03010519 8.53244780
Pu 10.19135744 -4.02127499 3.28915668
O -0.67409034 4.98759457 4.45729034
O 4.80330956 6.13703250 6.02515155
Pu -3.84149550 -4.49219140 -6.51952187
O 2.67250819 4.67354667 -6.51934725
O 0.94696408 -9.95189324 -2.17253973
Pu -1.23533259 -1.20667496 -10.39294979
O -1.51451480 -6.70170170 -5.28668112
O 9.13948954 3.14560261 -0.74899992
