420
ML-kMC step 1000
Pu 1.41253301 5.71072606 4.26659679
O 2.48051544 0.72059996 7.74761652
O 4.76811125 -2.77390691 -3.89053042
Pu 2.79538400 3.00665000 -5.40479000
O -5.65662786 7.93343741 1.97140977
O 10.44942806 -2.71916330 -3.38691786
Pu -7.36720798 5.81643562 -0.67988762
O 2.81069847 -11.74269844 -1.51485669
O -7.03218824 -3.16726578 -4.78361886
Pu -4.21850774 3.52414009 -7.27433632
O 1.20480600 -6.83943700 6.45926600
O 4.95635763 7.44679550 8.43010205
Pu 5.60786264 -5.98620986 3.88369972
O 2.29897188 2.64572059 0.23035483
O 5.94649178 6.34025065 -4.83197050
Pu -1.18042106 5.54747033 6.40769006
O -5.99846400 0.67681700 -5.05936400
O -4.49503454 1.10278115 -1.14980698
Pu -5.30531264 5.04415544 -3.41401634
O 8.19026700 2.60766700 -2.72590200
O 4.20023100 -0.75159500 2.65110100
Pu 1.67480900 3.92463200 8.19814000
O -4.61183794 1.49503119 -7.90039499
O -6.28502774 7.42092665 -1.01274718
Pu 0.22272368 -5.69586553 -10.77579029
O 2.15295130 7.57175931 -2.53661929
O -5.32560858 2.37050738 7.80392000
Pu 5.75474372 -3.30872491 -1.07801138
O -1.45759451 2.77966421 1.92556975
O -0.65691648 3.37313209 7.59958694
Pu -0.65982440 6.97295749 1.38800289
O 4.67462578 -5.38569904 1.72234172
O 0.82225355 4.21209761 6.17137537
Pu -3.53586498 -0.46278795 -8.24248638
O 1.29111900 -6.59903700 -6.18452500
O 0.46023358 8.57415851 -4.91759578
Pu 0.29764600 3.11177300 0.67131700
O -1.83182947 4.47863229 -9.09249204
O 4.86443779 -3.15920027 4.03822452
Pu 0.03999331 4.52091367 -9.53647880
O -6.67341898 4.97459192 7.48537388
O 0.95395875 -1.70867477 -9.06956660
Pu -3.29367045 -7.79456769 -6.79516282
O -4.75645872 -6.29732340 -6.84423289
O -5.81770471 -5.67664465 4.23084690
Pu -0.60010729 -6.26119837 6.13953940
O 6.14354099 2.57257110 6.17443606
O 1.21735297 -11.98250671 0.89819952
Pu -2.90173459 7.99087120 7.71067503
O -2.09930670 2.28058756 4.94984024
O -9.26454878 5.96277424 0.48021893
Pu 5.66469900 1.05981585 -8.00124292
O 3.49315469 -6.58873401 8.22856748
O 0.28106379 7.62242399 3.53413613
Pu 4.43335063 0.85822318 7.92387955
O -4.24240644 -5.74921775 -3.66675030
O -9.52320305 -5.34138003 0.49466293
Pu 7.34729065 -2.89966712 1.88368793
O 1.54208897 3.69137679 3.10295670
O -1.00761700 7.76550900 -2.32306000
Pu 0.24524004 9.38252876 -2.49531698
O 4.99804867 8.64619126 1.28916499
O -6.18172542 -6.35411924 0.78472858
Pu -1.81475483 7.00957922 -8.67877632
O 4.19017900 6.96661300 0.14645300
O 4.06199986 1.96627515 -9.58766017
Pu 2.54317611 -8.04675753 4.55765299
O -4.75807672 2.43994467 2.55166559
O 1.60028622 9.65836455 -0.88271926
Pu 2.90226900 -5.26113500 6.83299200
O 2.79094815 -1.30092353 -11.03200295
O 0.43667311 -7.11944177 -9.18116801
Pu -9.03268340 5.07005619 5.08584058
O 9.62309600 0.67361400 1.92493900
O 5.03137516 -3.21419922 -8.53350817
Pu -0.76541460 -6.45240918 -3.48998469
O -8.27937057 6.80640490 4.82878214
O -7.07811998 5.05895149 -4.36115935
Pu 5.08312537 6.00451466 1.91230027
O 4.04050068 4.33553558 1.35781770
O -8.42327214 2.77955371 -5.20956800
Pu 12.06222906 2.81553766 -1.22459009
O 6.48311993 4.67073168 6.80245179
O -2.06700110 6.11923860 8.19302457
Pu 3.70371677 0.81883075 -1.13428381
O 0.28629900 -1.59193300 -5.12497600
O -5.62068586 -3.36700555 5.84930092
Pu -1.03419962 0.90766627 -6.15332258
O 3.98967464 5.17971153 3.81693925
O 3.33413542 7.35164126 -5.25564521
Pu -11.05820116 2.00016573 5.79919608
O -9.82615912 3.60095237 6.21394971
O 13.11633188 3.63574394 -2.62668473
Pu -10.07295204 4.23694042 1.38661740
O 5.79331358 5.87723818 -1.92223397
O -3.17208074 4.45128507 5.56525758
Pu -8.79066803 0.43566057 0.42026371
O -9.89513561 4.16439582 3.34397076
O 1.07507524 -8.79576067 -5.78481139
Pu -9.73662961 -5.97057719 -1.44477230
O -2.34949891 -0.38406970 0.05223042
O 2.26979875 4.84803416 -9.60634250
Pu -1.66934736 -3.12631904 6.81671789
O 4.38023867 1.72815025 1.66449452
O -3.60839894 6.56219071 6.57763634
Pu -4.75645800 7.83684600 0.30051600
O -3.43511030 0.36086344 -5.62528940
O 6.97302829 4.96676685 3.08790662
Pu -0.85891089 9.23699487 4.61728718
O 0.51944776 4.34453533 9.70033900
O 8.12705315 2.59021810 2.67037362
Pu -5.87397683 -1.34026052 5.69447522
O 0.12084765 0.38107793 -10.41879395
O 4.83371201 3.04394768 -1.10673988
Pu 7.20324500 -1.09186100 -4.00110500
O 6.74773691 -5.41091289 -1.43254561
O -2.10512813 5.97372439 -6.14865104
Pu 2.06884118 -10.00186989 1.59890215
O 6.39723105 5.15401528 0.63821852
O 10.92984844 1.06406557 -2.02306350
Pu 9.31541485 3.50259850 1.45453575
O 7.36522354 -4.62038579 2.75809711
O -1.17329186 1.34819199 7.70570935
Pu -3.10103008 -1.55539183 -1.86311483
O -0.37030949 7.58900364 -7.22663466
O -0.45844071 -1.67650445 -12.37228405
Pu 1.88459857 6.71943985 -6.34667082
O -10.04238068 -4.91437956 -3.17338237
O -0.33879371 -12.41257871 -2.45147384
Pu 2.02298830 -2.64234290 -0.78949168
O -7.38558000 0.34775600 -0.89551100
O -5.03370272 -4.30728382 9.88880089
Pu 3.35677932 -9.94203762 -2.16889127
O 6.42193673 -4.46054154 -6.73204004
O -0.14425900 -4.79461200 -2.31845200
Pu 3.05206409 8.69335812 0.09622203
O 8.84367186 0.25838471 -3.50362103
O 3.75630231 -6.39753973 -7.00618691
Pu 2.62539945 -7.37440285 -4.99919493
O -4.19079096 4.49779290 -5.20505847
O -9.67496031 -0.31717318 -1.44310436
Pu -2.98217039 7.66072694 -2.57403416
O -0.98489897 -5.02272466 2.25364389
O 5.25519705 5.19532983 -7.97648359
Pu 5.05389487 -8.03781268 0.50194511
O 1.10765200 1.89126000 -4.74326400
O -3.37965337 3.65681517 0.33519669
Pu -4.36842097 1.02671241 -3.75907103
O 1.46667704 -4.58241642 -11.85294402
O -5.99730088 -7.69818468 -1.85819179
Pu 7.44222731 -2.98342488 5.84232580
O -4.53919500 -1.83531600 -7.15147300
O 6.79623688 -1.43851245 6.76100469
Pu 6.52237180 6.66923034 7.43951278
O -1.01542227 5.02108797 0.85177316
O -9.00455849 1.93898028 7.82396448
Pu 8.19138168 4.01237341 7.89471384
O -2.62830059 -9.08549818 -3.20160928
O -2.62364691 -2.40983455 9.38772129
Pu 6.16088562 4.04537903 -2.70950625
O -10.02999223 2.38471208 0.92263347
O -1.09560100 -4.19992800 -6.24295100
Pu -0.52413900 -3.18415400 3.35520300
O 7.34815039 -0.80809114 4.46780516
O -4.15562055 5.86269267 -1.60046631
Pu 2.83901149 -2.12226195 2.54244722
O 3.71623480 8.84753657 5.75827979
O 5.18065700 0.26271100 -2.54444100
Pu 3.05627734 2.15035949 3.18116798
O 2.72032467 -3.08585362 -6.94363394
O 8.62998425 3.52646763 9.72112016
Pu 0.93072947 -12.16901258 -1.02646666
O -7.59529500 1.68277300 2.41328500
O 0.07178512 -8.96265109 1.07326455
Pu -7.08019852 -8.32379121 -0.06252707
O -7.59574100 -0.56907793 -6.65982316
O 3.08216792 -3.72849019 1.24167748
Pu 6.82523933 -2.79678819 -7.93091013
O -4.21776868 -9.57150749 -4.92479275
O -0.86532600 -2.31311700 -1.15003600
Pu 5.88660991 -6.97659446 -2.84174027
O 7.48048734 -7.60207738 0.17689882
O -8.12420606 -5.06931693 3.28133503
Pu 3.39384900 4.64812700 -0.59715100
O -10.26836864 -1.84148578 -3.41764478
O -5.99379116 -4.05098879 1.58260374
Pu 0.15180600 -8.09479100 -7.47176300
O 6.42195316 -1.71464600 0.58827908
O -5.59797757 1.27543422 5.24091557
Pu -5.33222533 -4.07245879 7.98662220
O -2.35442009 -6.18128500 -0.01241076
O 1.41461056 2.63482566 -9.16610628
Pu 5.99884895 3.04562587 1.64067267
O -6.99984099 -1.97864222 7.67510963
O 4.81330328 7.42273233 3.21721140
Pu -3.52517100 1.56570200 0.61903500
O 1.54919520 5.38873436 -0.89843264
O 0.32069870 -2.80524495 0.90459615
Pu 8.73302797 0.48131500 3.64005800
O 5.27584244 2.59353878 3.89537770
O -0.01269768 6.48444994 -5.08597914
Pu -4.54505100 -5.68957800 -0.33778600
O 1.47073242 -3.40098335 3.43903224
O -6.59357861 4.35636724 -1.67540930
Pu -1.97539267 -0.12916604 9.08772977
O -5.75421855 -1.61163533 3.51092181
O 8.87181107 -0.13222269 5.66703525
Pu 2.33173800 -0.92628900 -7.14417100
O 6.18387228 0.39914488 -5.66121387
O 2.63360030 -9.81043421 3.52831021
Pu 8.02263727 2.02066230 -4.94833323
O -3.82504028 -6.42791068 2.11223112
O -0.54445851 6.25767001 -10.29873475
Pu 3.31075632 7.56094429 7.26241573
O 6.16509183 0.69406799 8.97969548
O -1.78272281 -0.84637275 2.07254957
Pu 9.26657352 -4.24712147 -3.06825559
O -2.47003556 5.41940789 -3.19106935
O -2.50243995 0.42866122 -2.07653470
Pu -5.09924498 5.03351683 6.23307703
O -6.43153494 -5.51343635 7.00764549
O 1.33798100 7.73328700 1.30393200
Pu 5.93029700 -4.35787700 -4.66670800
O -0.46289197 -1.70662729 6.09012209
O -0.15736600 -0.86257100 9.04014200
Pu 4.38553180 7.17217751 -3.41161374
O -2.70868375 2.87920735 7.76893181
O -7.70577787 -6.17315152 -0.85249684
Pu 2.21401926 0.84595269 -10.07325714
O 2.05441699 -1.17158676 0.83606683
O -7.50316238 1.23662647 -3.41480381
Pu -0.53902400 -2.68577400 -3.70563800
O 7.05136903 8.09565111 5.92188716
O 9.67266575 4.31687861 3.25878471
Pu 8.17167809 4.57491929 4.60616367
O 11.96750522 -1.48463972 -0.41731301
O -2.44023752 1.78545674 10.63488144
Pu 2.62780267 -5.73543366 1.56860044
O -0.10459793 -6.52091456 -0.82032729
O -10.42778600 -0.12889075 6.06924410
Pu -7.53426865 3.16751039 7.88803538
O 8.45072386 5.90956511 7.59829844
O 1.79431977 0.84500618 -2.29958731
Pu 11.09391019 -1.08853146 -2.16680520
O 1.29067301 -2.52560050 -2.98258913
O -4.39649676 -0.01216171 1.97273025
Pu -7.44225843 -1.36970840 -2.17896348
O -5.05540177 -1.39075541 -3.59307480
O -2.49799187 3.17208712 -6.50870719
Pu -6.00868200 -1.41283100 1.45033000
O 4.35105888 -6.05478856 -1.52253302
O 8.94081699 3.68825201 6.12015687
Pu -9.93863459 0.17779583 -3.35262297
O 9.55645678 -5.14081972 -1.18429891
O 3.02792631 -1.03073308 -1.45488735
Pu -7.14627239 6.90861617 2.93125744
O -1.96491200 9.40659000 -3.41178600
O 2.05211247 -8.40956775 -1.95604389
Pu -2.80062849 -4.07305594 10.33403652
O -3.44019378 9.01529660 4.66255280
O 4.81223586 8.26019120 -1.52678945
Pu -9.24989290 -3.42628477 -4.13695825
O 11.34856604 2.69402775 0.69265742
O -9.41474844 1.85754655 4.78018929
Pu 3.85476898 3.88481442 -8.50404552
O -0.93306168 -5.66690542 7.92519089
O -4.31975012 -7.33766099 4.61316544
Pu -9.03904070 4.05102269 -3.92109055
O 3.01823481 -7.21759156 0.21716495
O 9.08857801 -1.92892321 2.59556186
Pu 1.32831105 -2.45606321 -11.62375384
O -3.98020392 7.63507718 -4.32391528
O -8.62875680 -3.78557214 6.19814367
Pu -1.71852275 3.30817677 9.42639527
O -4.63030410 -8.66086658 0.33068137
O -1.99574838 -2.29020857 -8.71705863
Pu -2.42239193 4.94542019 -0.90639043
O -2.04410739 10.58953236 3.62488868
O 4.34881270 3.99789634 -4.52905127
Pu -3.89823600 1.80798600 6.66007600
O -4.51714591 -3.78158602 -1.40264152
O -0.95588227 -0.44251232 -3.59379242
Pu -1.61648500 -7.62259300 2.58374000
O -1.71347548 -4.66584106 5.12175423
O -7.63036099 -0.39128124 5.55959065
Pu -0.33737447 2.30893268 5.82374240
O 0.97224014 -4.21594047 5.95565713
O 4.93206913 -7.50952932 2.56859206
Pu 2.98945518 -1.10071692 -3.77743192
O -7.54049543 3.67799518 5.73029668
O -5.55516931 -1.40619476 -0.69950154
Pu 7.38752584 0.59276234 6.88302182
O -4.22667498 5.64528472 1.56202865
O 5.04546000 -6.30408200 -4.41205900
Pu -7.51221500 1.60634500 4.71252900
O 1.51950695 1.38548688 4.56258353
O 6.90082283 -0.92867380 -8.52240278
Pu -8.86136427 -1.67689635 6.59720583
O -9.27563030 4.99715897 -2.28159101
O 8.63287825 -3.52361948 0.36982173
Pu 2.44266237 -5.92082602 -1.74065937
O 11.43831981 -2.92205760 2.22796227
O 7.17241450 -2.64884294 -5.42996742
Pu -1.38847517 8.45822832 -5.62225744
O 7.37786880 -2.73359085 -2.69260486
O -10.35133619 1.98150576 -2.81593625
Pu -3.98448427 7.24504441 4.17711934
O -1.23279864 7.65756030 6.10888161
O -0.18170205 -3.40899976 -10.21078809
Pu -5.79547470 -1.37244199 -5.69297096
O 3.54626874 -0.13705403 -5.72731102
O -3.42407512 -0.20003186 7.36308471
Pu -3.49318415 -10.20988136 0.14126312
O -3.71309854 6.98384910 -8.25720519
O -8.13768409 -3.17374122 -2.14646850
Pu -4.68882339 -8.75154793 -3.14321479
O 1.59477391 -4.78309109 -0.31789045
O -2.32428841 7.27026254 0.31687813
Pu -6.45022100 4.05277200 2.60396900
O -0.53766247 -8.24480662 -2.83619587
O -5.84302157 6.98640632 4.78599548
Pu 8.25241374 -5.68362118 0.60061573
O 4.33253234 2.38515181 -6.81494980
O -3.16644139 9.92914493 6.59854166
Pu -0.89779641 1.48593283 -2.34282136
O -2.47284605 -3.19571618 3.35093965
O 3.38858500 -1.25256400 6.07140600
Pu 5.43103915 8.63094261 4.64811832
O -7.98406600 5.23683200 3.29137000
O -4.16594251 9.04200202 -1.22261020
Pu -2.65668711 3.97617008 3.24787650
O 2.03965600 -7.84028500 2.34402600
O -7.93603783 -1.14578330 1.07490637
Pu -7.64480547 1.18538220 -5.91713124
O 6.82094972 3.57987953 -4.92795614
O -6.60726277 -9.25425835 1.90834878
Pu -7.79229997 -5.01193927 1.38709790
O -2.71349251 0.04924948 -9.92445847
O 7.61413120 -5.53110342 -3.77360710
Pu -1.07706949 -10.36037115 -3.22347759
O 2.73123673 5.85805641 7.92450144
O 0.30302755 -0.15912951 -7.31148075
Pu 0.24441135 -8.45542856 -1.03313424
O 3.87609276 -3.47669209 -1.79100185
O 6.38067645 -4.95665951 5.56470305
Pu 0.92014900 5.89921300 -2.97680800
O 9.49079378 -5.83626739 2.56582850
O 0.04149400 1.32116700 -0.19586600
Pu -3.09432383 11.26018032 5.10961100
O -1.84547268 -8.86665345 -7.81769413
O -2.65108658 -3.09572512 -3.16798449
Pu 6.32465950 7.57431579 -0.51872684
O 3.72232900 0.47978500 -8.10324800
O -2.95461231 8.58102997 -6.92887636
Pu -0.34880579 -0.76868595 0.32559827
O -2.86474366 -9.31780560 2.15676545
O -0.72868254 -7.50725926 4.49512719
Pu 5.81311850 4.70921260 -6.21789943
O -1.08698976 3.42819810 -0.92307163
O -5.19904362 4.80910886 4.30161807
Pu -0.62198786 -4.70950918 -0.19582649
O 7.28127597 2.38391406 -6.94865504
O -2.26949540 6.42711511 3.66370220
Pu 5.04176444 -1.08308659 4.65354604
O -4.28182800 -3.12233400 -5.43859100
O -7.79662588 3.78176331 -0.04005898
Pu -4.15301679 6.72962481 -6.06589366
O 3.60521846 3.04865648 7.29150184
O 1.13668400 7.11776100 6.33667600
Pu -7.35788424 -4.96956095 5.36933326
O 3.87548531 -8.54475430 -3.88338156
O -8.20621252 -1.06291769 -4.23069595
Pu 1.35153490 -1.45496409 7.39120313
O -5.49422689 5.23758265 -6.99982928
O 1.46174709 -6.02261502 -3.84965911
Pu -1.81060700 4.46235000 -4.96477100
O -9.10038399 -8.23249303 -0.85607244
O 3.04048627 5.16504200 -2.68242233
Pu -6.71857247 2.37418259 -1.57031193
O 7.95329989 7.94158605 -1.66396503
O -3.27271100 -4.27315900 7.92893900
Pu -5.12446768 -7.80824138 2.29912376
O -1.90109268 -10.65199917 -1.16365170
O -0.14068482 -3.29675253 8.27186323
Pu 10.55570311 -1.46290042 1.05143705
O 5.26330508 0.25304900 6.28703673
O -5.14328488 -9.93600351 -1.30352536
Pu 3.80981957 -4.73736004 -8.14909368
O -4.92878876 3.18734134 -3.25212809
O 5.11293085 -8.74890217 -1.55055617
Pu -5.21136989 -3.67999609 -3.77740508
O 1.56297900 -4.64402900 -9.25105600
O 8.77973598 -3.78992412 4.70688691
Pu 4.78374408 4.24895293 5.57300058
O 0.26463300 4.54107300 -4.36833200
O 3.27585173 -6.27845610 4.96748727
Pu -3.97736600 -5.20561700 3.92622900
O 6.95058227 2.49481866 -0.06819546
O 3.22938311 -9.44561295 0.17307894
Pu -0.05413765 -3.37433130 -7.94020929
O -1.07529687 10.84254265 5.70695561
O -7.06484019 5.55186476 1.37611080
Pu 8.49588402 1.31803894 -0.94236540
O -1.08677517 -4.85523393 10.93927807
O 9.43745305 -0.55782867 -0.56583021
Pu 0.44035200 -4.94986900 9.58850400
O -2.63945945 -5.88689649 -7.93212710
O -3.93606900 -1.51681700 5.52390600
Pu -3.23245916 -0.86121114 3.49436526
O -1.59056242 2.41116109 -4.23353015
O 2.03160800 -4.19862700 8.59257900
Pu 10.32674040 -4.25234556 3.50031247
O -0.55322787 4.96089890 4.46664732
O 4.78825247 6.23610170 6.03791438
Pu -3.89378807 -4.57177564 -6.63871848
O 2.96701837 4.84683052 -6.45876648
O 0.65137731 -10.38608863 -2.14684187
Pu -1.31981691 -1.17088433 -10.73761801
O -1.86111610 -7.02956972 -5.44107992
O 10.07328407 3.17685965 -0.86439682
